 Entering Gaussian System, Link 0=g16
 Input=DPT_S0_OptFreq.com
 Output=DPT_S0_OptFreq.log
 Initial command:
 /usr/local/g16/l1.exe "/home/padawan/Born/Cascata/OptFreq/DPT/OptFreq/Gau-27908.inp" -scrdir="/home/padawan/Born/Cascata/OptFreq/DPT/OptFreq/"
 Entering Link 1 = /usr/local/g16/l1.exe PID=     27910.
  
 Copyright (c) 1988-2017, Gaussian, Inc.  All Rights Reserved.
  
 This is part of the Gaussian(R) 16 program.  It is based on
 the Gaussian(R) 09 system (copyright 2009, Gaussian, Inc.),
 the Gaussian(R) 03 system (copyright 2003, Gaussian, Inc.),
 the Gaussian(R) 98 system (copyright 1998, Gaussian, Inc.),
 the Gaussian(R) 94 system (copyright 1995, Gaussian, Inc.),
 the Gaussian 92(TM) system (copyright 1992, Gaussian, Inc.),
 the Gaussian 90(TM) system (copyright 1990, Gaussian, Inc.),
 the Gaussian 88(TM) system (copyright 1988, Gaussian, Inc.),
 the Gaussian 86(TM) system (copyright 1986, Carnegie Mellon
 University), and the Gaussian 82(TM) system (copyright 1983,
 Carnegie Mellon University). Gaussian is a federally registered
 trademark of Gaussian, Inc.
  
 This software contains proprietary and confidential information,
 including trade secrets, belonging to Gaussian, Inc.
  
 This software is provided under written license and may be
 used, copied, transmitted, or stored only in accord with that
 written license.
  
 The following legend is applicable only to US Government
 contracts under FAR:
  
                    RESTRICTED RIGHTS LEGEND
  
 Use, reproduction and disclosure by the US Government is
 subject to restrictions as set forth in subparagraphs (a)
 and (c) of the Commercial Computer Software - Restricted
 Rights clause in FAR 52.227-19.
  
 Gaussian, Inc.
 340 Quinnipiac St., Bldg. 40, Wallingford CT 06492
  
  
 ---------------------------------------------------------------
 Warning -- This program may not be used in any manner that
 competes with the business of Gaussian, Inc. or will provide
 assistance to any competitor of Gaussian, Inc.  The licensee
 of this program is prohibited from giving any competitor of
 Gaussian, Inc. access to this program.  By using this program,
 the user acknowledges that Gaussian, Inc. is engaged in the
 business of creating and licensing software in the field of
 computational chemistry and represents and warrants to the
 licensee that it is not a competitor of Gaussian, Inc. and that
 it will not use this program in any manner prohibited above.
 ---------------------------------------------------------------
  

 Cite this work as:
 Gaussian 16, Revision B.01,
 M. J. Frisch, G. W. Trucks, H. B. Schlegel, G. E. Scuseria, 
 M. A. Robb, J. R. Cheeseman, G. Scalmani, V. Barone, 
 G. A. Petersson, H. Nakatsuji, X. Li, M. Caricato, A. V. Marenich, 
 J. Bloino, B. G. Janesko, R. Gomperts, B. Mennucci, H. P. Hratchian, 
 J. V. Ortiz, A. F. Izmaylov, J. L. Sonnenberg, D. Williams-Young, 
 F. Ding, F. Lipparini, F. Egidi, J. Goings, B. Peng, A. Petrone, 
 T. Henderson, D. Ranasinghe, V. G. Zakrzewski, J. Gao, N. Rega, 
 G. Zheng, W. Liang, M. Hada, M. Ehara, K. Toyota, R. Fukuda, 
 J. Hasegawa, M. Ishida, T. Nakajima, Y. Honda, O. Kitao, H. Nakai, 
 T. Vreven, K. Throssell, J. A. Montgomery, Jr., J. E. Peralta, 
 F. Ogliaro, M. J. Bearpark, J. J. Heyd, E. N. Brothers, K. N. Kudin, 
 V. N. Staroverov, T. A. Keith, R. Kobayashi, J. Normand, 
 K. Raghavachari, A. P. Rendell, J. C. Burant, S. S. Iyengar, 
 J. Tomasi, M. Cossi, J. M. Millam, M. Klene, C. Adamo, R. Cammi, 
 J. W. Ochterski, R. L. Martin, K. Morokuma, O. Farkas, 
 J. B. Foresman, and D. J. Fox, Gaussian, Inc., Wallingford CT, 2016.
 
 ******************************************
 Gaussian 16:  EM64L-G16RevB.01 20-Dec-2017
                16-Jun-2023 
 ******************************************
 %nproc=30
 Will use up to   30 processors via shared memory.
 %mem=120GB
 ----------------------------------------------------------------------
 # wb97xd/6-31G(d,p) opt freq=noraman iop(3/108=0143700000) iop(3/107=0
 143700000) SCRF=(CorrectedLR,read)
 ----------------------------------------------------------------------
 1/18=20,19=15,26=3,38=1/1,3;
 2/9=110,12=2,17=6,18=5,40=1/2;
 3/5=1,6=6,7=101,11=2,25=1,30=1,70=2203,71=1,74=-58,107=143700000,108=143700000/1,2,3;
 4//1;
 5/5=2,38=5/2;
 6/7=2,8=2,9=2,10=2,22=-1,28=1/1;
 7//1,2,3,16;
 1/18=20,19=15,26=3/3(2);
 2/9=110/2;
 99//99;
 2/9=110/2;
 3/5=1,6=6,7=101,11=2,25=1,30=1,70=2205,71=1,74=-58,107=143700000,108=143700000/1,2,3;
 4/5=5,16=3,69=1/1;
 5/5=2,38=5/2;
 7//1,2,3,16;
 1/18=20,19=15,26=3/3(-5);
 2/9=110/2;
 6/7=2,8=2,9=2,10=2,19=2,22=-1,28=1/1;
 99/9=1/99;
 -----
 TITLE
 -----
 Symbolic Z-matrix:
 Charge =  0 Multiplicity = 1
 6                     1.40812   4.19503   0.00004 
 6                     0.71549   5.36853   0. 
 6                    -0.71551   5.36853  -0.00005 
 6                    -1.40814   4.19502  -0.00007 
 6                    -0.72113   2.93549  -0.00004 
 6                     0.72111   2.93549   0.00001 
 6                     1.40043   1.72465   0.00003 
 6                     0.72264   0.48716   0.00001 
 6                    -0.72264   0.48716  -0.00001 
 6                    -1.40044   1.72464  -0.00005 
 6                     1.4243   -0.74636   0.00001 
 6                     0.72332  -1.95561   0. 
 6                    -0.72331  -1.95561   0.00002 
 6                    -1.4243   -0.74637   0. 
 1                     2.49432   4.19176   0.00008 
 1                     1.24607   6.31526   0.00002 
 1                    -1.2461    6.31525  -0.00008 
 1                    -2.49434   4.19175  -0.00012 
 1                     2.48555   1.72938   0.00007 
 1                    -2.48556   1.72937  -0.00008 
 6                     1.40407  -3.22175  -0.00002 
 6                     0.71392  -4.39575  -0.00001 
 6                    -0.7139   -4.39575   0.00005 
 6                    -1.40406  -3.22176   0.00005 
 1                     2.48825  -3.22491  -0.00006 
 1                    -2.48823  -3.22493   0.00009 
 1                     1.24874  -5.3401   -0.00003 
 1                    -1.24871  -5.34011   0.00008 
 6                    -2.91799  -0.74167   0. 
 6                    -3.62885  -0.73687  -1.20538 
 6                    -5.02212  -0.72863  -1.20562 
 6                    -5.72169  -0.72418  0. 
 6                    -5.02212  -0.72796   1.20561 
 6                    -3.62885  -0.73619   1.20538 
 1                    -3.08086  -0.73987  -2.1425 
 1                    -5.56102  -0.72584  -2.14778 
 1                    -3.08085  -0.73867   2.1425 
 1                    -6.80694  -0.71785  0. 
 1                    -5.56101  -0.72464   2.14777 
 6                     2.91799  -0.74166   0.00001 
 6                     3.62885  -0.73616  -1.20537 
 6                     5.02212  -0.72792  -1.20561 
 6                     5.7217   -0.72416   0.00001 
 6                     5.02212  -0.72864   1.20562 
 6                     3.62885  -0.73688   1.20538 
 1                     5.56102  -0.72458  -2.14776 
 1                     6.80694  -0.71783   0.00001 
 1                     3.08086  -0.73862  -2.1425 
 1                     5.56102  -0.72586   2.14778 
 1                     3.08086  -0.7399    2.14251 
 

 GradGradGradGradGradGradGradGradGradGradGradGradGradGradGradGradGradGrad
 Berny optimization.
 Initialization pass.
                           ----------------------------
                           !    Initial Parameters    !
                           ! (Angstroms and Degrees)  !
 --------------------------                            --------------------------
 ! Name  Definition              Value          Derivative Info.                !
 --------------------------------------------------------------------------------
 ! R1    R(1,2)                  1.3627         estimate D2E/DX2                !
 ! R2    R(1,6)                  1.4347         estimate D2E/DX2                !
 ! R3    R(1,15)                 1.0862         estimate D2E/DX2                !
 ! R4    R(2,3)                  1.431          estimate D2E/DX2                !
 ! R5    R(2,16)                 1.0853         estimate D2E/DX2                !
 ! R6    R(3,4)                  1.3627         estimate D2E/DX2                !
 ! R7    R(3,17)                 1.0853         estimate D2E/DX2                !
 ! R8    R(4,5)                  1.4347         estimate D2E/DX2                !
 ! R9    R(4,18)                 1.0862         estimate D2E/DX2                !
 ! R10   R(5,6)                  1.4422         estimate D2E/DX2                !
 ! R11   R(5,10)                 1.3884         estimate D2E/DX2                !
 ! R12   R(6,7)                  1.3884         estimate D2E/DX2                !
 ! R13   R(7,8)                  1.4109         estimate D2E/DX2                !
 ! R14   R(7,19)                 1.0851         estimate D2E/DX2                !
 ! R15   R(8,9)                  1.4453         estimate D2E/DX2                !
 ! R16   R(8,11)                 1.4191         estimate D2E/DX2                !
 ! R17   R(9,10)                 1.4109         estimate D2E/DX2                !
 ! R18   R(9,14)                 1.4191         estimate D2E/DX2                !
 ! R19   R(10,20)                1.0851         estimate D2E/DX2                !
 ! R20   R(11,12)                1.3977         estimate D2E/DX2                !
 ! R21   R(11,40)                1.4937         estimate D2E/DX2                !
 ! R22   R(12,13)                1.4466         estimate D2E/DX2                !
 ! R23   R(12,21)                1.4375         estimate D2E/DX2                !
 ! R24   R(13,14)                1.3977         estimate D2E/DX2                !
 ! R25   R(13,24)                1.4375         estimate D2E/DX2                !
 ! R26   R(14,29)                1.4937         estimate D2E/DX2                !
 ! R27   R(21,22)                1.3618         estimate D2E/DX2                !
 ! R28   R(21,25)                1.0842         estimate D2E/DX2                !
 ! R29   R(22,23)                1.4278         estimate D2E/DX2                !
 ! R30   R(22,27)                1.0853         estimate D2E/DX2                !
 ! R31   R(23,24)                1.3618         estimate D2E/DX2                !
 ! R32   R(23,28)                1.0853         estimate D2E/DX2                !
 ! R33   R(24,26)                1.0842         estimate D2E/DX2                !
 ! R34   R(29,30)                1.3994         estimate D2E/DX2                !
 ! R35   R(29,34)                1.3994         estimate D2E/DX2                !
 ! R36   R(30,31)                1.3933         estimate D2E/DX2                !
 ! R37   R(30,35)                1.0856         estimate D2E/DX2                !
 ! R38   R(31,32)                1.3939         estimate D2E/DX2                !
 ! R39   R(31,36)                1.0854         estimate D2E/DX2                !
 ! R40   R(32,33)                1.3939         estimate D2E/DX2                !
 ! R41   R(32,38)                1.0853         estimate D2E/DX2                !
 ! R42   R(33,34)                1.3933         estimate D2E/DX2                !
 ! R43   R(33,39)                1.0854         estimate D2E/DX2                !
 ! R44   R(34,37)                1.0856         estimate D2E/DX2                !
 ! R45   R(40,41)                1.3994         estimate D2E/DX2                !
 ! R46   R(40,45)                1.3994         estimate D2E/DX2                !
 ! R47   R(41,42)                1.3933         estimate D2E/DX2                !
 ! R48   R(41,48)                1.0856         estimate D2E/DX2                !
 ! R49   R(42,43)                1.3939         estimate D2E/DX2                !
 ! R50   R(42,46)                1.0854         estimate D2E/DX2                !
 ! R51   R(43,44)                1.3939         estimate D2E/DX2                !
 ! R52   R(43,47)                1.0853         estimate D2E/DX2                !
 ! R53   R(44,45)                1.3933         estimate D2E/DX2                !
 ! R54   R(44,49)                1.0854         estimate D2E/DX2                !
 ! R55   R(45,50)                1.0856         estimate D2E/DX2                !
 ! A1    A(2,1,6)              120.8403         estimate D2E/DX2                !
 ! A2    A(2,1,15)             120.7221         estimate D2E/DX2                !
 ! A3    A(6,1,15)             118.4376         estimate D2E/DX2                !
 ! A4    A(1,2,3)              120.5498         estimate D2E/DX2                !
 ! A5    A(1,2,16)             120.1821         estimate D2E/DX2                !
 ! A6    A(3,2,16)             119.2681         estimate D2E/DX2                !
 ! A7    A(2,3,4)              120.5498         estimate D2E/DX2                !
 ! A8    A(2,3,17)             119.2682         estimate D2E/DX2                !
 ! A9    A(4,3,17)             120.182          estimate D2E/DX2                !
 ! A10   A(3,4,5)              120.8403         estimate D2E/DX2                !
 ! A11   A(3,4,18)             120.7221         estimate D2E/DX2                !
 ! A12   A(5,4,18)             118.4376         estimate D2E/DX2                !
 ! A13   A(4,5,6)              118.61           estimate D2E/DX2                !
 ! A14   A(4,5,10)             122.0965         estimate D2E/DX2                !
 ! A15   A(6,5,10)             119.2936         estimate D2E/DX2                !
 ! A16   A(1,6,5)              118.61           estimate D2E/DX2                !
 ! A17   A(1,6,7)              122.0964         estimate D2E/DX2                !
 ! A18   A(5,6,7)              119.2936         estimate D2E/DX2                !
 ! A19   A(6,7,8)              121.9962         estimate D2E/DX2                !
 ! A20   A(6,7,19)             119.0441         estimate D2E/DX2                !
 ! A21   A(8,7,19)             118.9597         estimate D2E/DX2                !
 ! A22   A(7,8,9)              118.7102         estimate D2E/DX2                !
 ! A23   A(7,8,11)             121.6577         estimate D2E/DX2                !
 ! A24   A(9,8,11)             119.6321         estimate D2E/DX2                !
 ! A25   A(8,9,10)             118.7102         estimate D2E/DX2                !
 ! A26   A(8,9,14)             119.6321         estimate D2E/DX2                !
 ! A27   A(10,9,14)            121.6576         estimate D2E/DX2                !
 ! A28   A(5,10,9)             121.9962         estimate D2E/DX2                !
 ! A29   A(5,10,20)            119.0441         estimate D2E/DX2                !
 ! A30   A(9,10,20)            118.9597         estimate D2E/DX2                !
 ! A31   A(8,11,12)            120.2677         estimate D2E/DX2                !
 ! A32   A(8,11,40)            119.452          estimate D2E/DX2                !
 ! A33   A(12,11,40)           120.2803         estimate D2E/DX2                !
 ! A34   A(11,12,13)           120.1002         estimate D2E/DX2                !
 ! A35   A(11,12,21)           121.635          estimate D2E/DX2                !
 ! A36   A(13,12,21)           118.2648         estimate D2E/DX2                !
 ! A37   A(12,13,14)           120.1002         estimate D2E/DX2                !
 ! A38   A(12,13,24)           118.2648         estimate D2E/DX2                !
 ! A39   A(14,13,24)           121.635          estimate D2E/DX2                !
 ! A40   A(9,14,13)            120.2677         estimate D2E/DX2                !
 ! A41   A(9,14,29)            119.4519         estimate D2E/DX2                !
 ! A42   A(13,14,29)           120.2804         estimate D2E/DX2                !
 ! A43   A(12,21,22)           121.2854         estimate D2E/DX2                !
 ! A44   A(12,21,25)           118.4321         estimate D2E/DX2                !
 ! A45   A(22,21,25)           120.2825         estimate D2E/DX2                !
 ! A46   A(21,22,23)           120.4498         estimate D2E/DX2                !
 ! A47   A(21,22,27)           120.026          estimate D2E/DX2                !
 ! A48   A(23,22,27)           119.5242         estimate D2E/DX2                !
 ! A49   A(22,23,24)           120.4499         estimate D2E/DX2                !
 ! A50   A(22,23,28)           119.5242         estimate D2E/DX2                !
 ! A51   A(24,23,28)           120.026          estimate D2E/DX2                !
 ! A52   A(13,24,23)           121.2853         estimate D2E/DX2                !
 ! A53   A(13,24,26)           118.4321         estimate D2E/DX2                !
 ! A54   A(23,24,26)           120.2825         estimate D2E/DX2                !
 ! A55   A(14,29,30)           120.5299         estimate D2E/DX2                !
 ! A56   A(14,29,34)           120.5299         estimate D2E/DX2                !
 ! A57   A(30,29,34)           118.9396         estimate D2E/DX2                !
 ! A58   A(29,30,31)           120.5399         estimate D2E/DX2                !
 ! A59   A(29,30,35)           119.1524         estimate D2E/DX2                !
 ! A60   A(31,30,35)           120.3077         estimate D2E/DX2                !
 ! A61   A(30,31,32)           120.1158         estimate D2E/DX2                !
 ! A62   A(30,31,36)           119.7789         estimate D2E/DX2                !
 ! A63   A(32,31,36)           120.1053         estimate D2E/DX2                !
 ! A64   A(31,32,33)           119.7489         estimate D2E/DX2                !
 ! A65   A(31,32,38)           120.1256         estimate D2E/DX2                !
 ! A66   A(33,32,38)           120.1255         estimate D2E/DX2                !
 ! A67   A(32,33,34)           120.1157         estimate D2E/DX2                !
 ! A68   A(32,33,39)           120.1054         estimate D2E/DX2                !
 ! A69   A(34,33,39)           119.7789         estimate D2E/DX2                !
 ! A70   A(29,34,33)           120.54           estimate D2E/DX2                !
 ! A71   A(29,34,37)           119.1524         estimate D2E/DX2                !
 ! A72   A(33,34,37)           120.3077         estimate D2E/DX2                !
 ! A73   A(11,40,41)           120.5298         estimate D2E/DX2                !
 ! A74   A(11,40,45)           120.5299         estimate D2E/DX2                !
 ! A75   A(41,40,45)           118.9397         estimate D2E/DX2                !
 ! A76   A(40,41,42)           120.54           estimate D2E/DX2                !
 ! A77   A(40,41,48)           119.1524         estimate D2E/DX2                !
 ! A78   A(42,41,48)           120.3077         estimate D2E/DX2                !
 ! A79   A(41,42,43)           120.1157         estimate D2E/DX2                !
 ! A80   A(41,42,46)           119.779          estimate D2E/DX2                !
 ! A81   A(43,42,46)           120.1054         estimate D2E/DX2                !
 ! A82   A(42,43,44)           119.749          estimate D2E/DX2                !
 ! A83   A(42,43,47)           120.1255         estimate D2E/DX2                !
 ! A84   A(44,43,47)           120.1255         estimate D2E/DX2                !
 ! A85   A(43,44,45)           120.1157         estimate D2E/DX2                !
 ! A86   A(43,44,49)           120.1054         estimate D2E/DX2                !
 ! A87   A(45,44,49)           119.7789         estimate D2E/DX2                !
 ! A88   A(40,45,44)           120.5399         estimate D2E/DX2                !
 ! A89   A(40,45,50)           119.1524         estimate D2E/DX2                !
 ! A90   A(44,45,50)           120.3077         estimate D2E/DX2                !
 ! D1    D(6,1,2,3)              0.0001         estimate D2E/DX2                !
 ! D2    D(6,1,2,16)          -180.0            estimate D2E/DX2                !
 ! D3    D(15,1,2,3)           179.9999         estimate D2E/DX2                !
 ! D4    D(15,1,2,16)           -0.0001         estimate D2E/DX2                !
 ! D5    D(2,1,6,5)             -0.0004         estimate D2E/DX2                !
 ! D6    D(2,1,6,7)            179.9994         estimate D2E/DX2                !
 ! D7    D(15,1,6,5)           179.9998         estimate D2E/DX2                !
 ! D8    D(15,1,6,7)            -0.0004         estimate D2E/DX2                !
 ! D9    D(1,2,3,4)              0.0001         estimate D2E/DX2                !
 ! D10   D(1,2,3,17)          -180.0            estimate D2E/DX2                !
 ! D11   D(16,2,3,4)          -179.9999         estimate D2E/DX2                !
 ! D12   D(16,2,3,17)            0.0            estimate D2E/DX2                !
 ! D13   D(2,3,4,5)              0.0            estimate D2E/DX2                !
 ! D14   D(2,3,4,18)           179.9999         estimate D2E/DX2                !
 ! D15   D(17,3,4,5)          -179.9999         estimate D2E/DX2                !
 ! D16   D(17,3,4,18)            0.0            estimate D2E/DX2                !
 ! D17   D(3,4,5,6)             -0.0003         estimate D2E/DX2                !
 ! D18   D(3,4,5,10)           179.9995         estimate D2E/DX2                !
 ! D19   D(18,4,5,6)           179.9998         estimate D2E/DX2                !
 ! D20   D(18,4,5,10)           -0.0004         estimate D2E/DX2                !
 ! D21   D(4,5,6,1)              0.0005         estimate D2E/DX2                !
 ! D22   D(4,5,6,7)           -179.9993         estimate D2E/DX2                !
 ! D23   D(10,5,6,1)          -179.9993         estimate D2E/DX2                !
 ! D24   D(10,5,6,7)             0.0009         estimate D2E/DX2                !
 ! D25   D(4,5,10,9)          -179.9999         estimate D2E/DX2                !
 ! D26   D(4,5,10,20)            0.0001         estimate D2E/DX2                !
 ! D27   D(6,5,10,9)            -0.0002         estimate D2E/DX2                !
 ! D28   D(6,5,10,20)          179.9999         estimate D2E/DX2                !
 ! D29   D(1,6,7,8)           -179.9998         estimate D2E/DX2                !
 ! D30   D(1,6,7,19)             0.0001         estimate D2E/DX2                !
 ! D31   D(5,6,7,8)             -0.0001         estimate D2E/DX2                !
 ! D32   D(5,6,7,19)           179.9999         estimate D2E/DX2                !
 ! D33   D(6,7,8,9)             -0.0015         estimate D2E/DX2                !
 ! D34   D(6,7,8,11)           179.999          estimate D2E/DX2                !
 ! D35   D(19,7,8,9)           179.9985         estimate D2E/DX2                !
 ! D36   D(19,7,8,11)           -0.001          estimate D2E/DX2                !
 ! D37   D(7,8,9,10)             0.0022         estimate D2E/DX2                !
 ! D38   D(7,8,9,14)          -179.9981         estimate D2E/DX2                !
 ! D39   D(11,8,9,10)         -179.9983         estimate D2E/DX2                !
 ! D40   D(11,8,9,14)            0.0014         estimate D2E/DX2                !
 ! D41   D(7,8,11,12)          179.9988         estimate D2E/DX2                !
 ! D42   D(7,8,11,40)           -0.0012         estimate D2E/DX2                !
 ! D43   D(9,8,11,12)           -0.0007         estimate D2E/DX2                !
 ! D44   D(9,8,11,40)          179.9993         estimate D2E/DX2                !
 ! D45   D(8,9,10,5)            -0.0014         estimate D2E/DX2                !
 ! D46   D(8,9,10,20)          179.9986         estimate D2E/DX2                !
 ! D47   D(14,9,10,5)          179.9989         estimate D2E/DX2                !
 ! D48   D(14,9,10,20)          -0.0011         estimate D2E/DX2                !
 ! D49   D(8,9,14,13)           -0.0007         estimate D2E/DX2                !
 ! D50   D(8,9,14,29)          179.9993         estimate D2E/DX2                !
 ! D51   D(10,9,14,13)         179.999          estimate D2E/DX2                !
 ! D52   D(10,9,14,29)          -0.0011         estimate D2E/DX2                !
 ! D53   D(8,11,12,13)          -0.0006         estimate D2E/DX2                !
 ! D54   D(8,11,12,21)         179.9987         estimate D2E/DX2                !
 ! D55   D(40,11,12,13)        179.9994         estimate D2E/DX2                !
 ! D56   D(40,11,12,21)         -0.0014         estimate D2E/DX2                !
 ! D57   D(8,11,40,41)         -89.8447         estimate D2E/DX2                !
 ! D58   D(8,11,40,45)          89.8787         estimate D2E/DX2                !
 ! D59   D(12,11,40,41)         90.1554         estimate D2E/DX2                !
 ! D60   D(12,11,40,45)        -90.1212         estimate D2E/DX2                !
 ! D61   D(11,12,13,14)          0.0012         estimate D2E/DX2                !
 ! D62   D(11,12,13,24)       -179.9982         estimate D2E/DX2                !
 ! D63   D(21,12,13,14)       -179.9981         estimate D2E/DX2                !
 ! D64   D(21,12,13,24)          0.0025         estimate D2E/DX2                !
 ! D65   D(11,12,21,22)        179.999          estimate D2E/DX2                !
 ! D66   D(11,12,21,25)         -0.001          estimate D2E/DX2                !
 ! D67   D(13,12,21,22)         -0.0017         estimate D2E/DX2                !
 ! D68   D(13,12,21,25)        179.9982         estimate D2E/DX2                !
 ! D69   D(12,13,14,9)          -0.0006         estimate D2E/DX2                !
 ! D70   D(12,13,14,29)        179.9995         estimate D2E/DX2                !
 ! D71   D(24,13,14,9)         179.9988         estimate D2E/DX2                !
 ! D72   D(24,13,14,29)         -0.0011         estimate D2E/DX2                !
 ! D73   D(12,13,24,23)         -0.0016         estimate D2E/DX2                !
 ! D74   D(12,13,24,26)        179.9983         estimate D2E/DX2                !
 ! D75   D(14,13,24,23)        179.9989         estimate D2E/DX2                !
 ! D76   D(14,13,24,26)         -0.0011         estimate D2E/DX2                !
 ! D77   D(9,14,29,30)          89.8771         estimate D2E/DX2                !
 ! D78   D(9,14,29,34)         -89.8463         estimate D2E/DX2                !
 ! D79   D(13,14,29,30)        -90.1229         estimate D2E/DX2                !
 ! D80   D(13,14,29,34)         90.1537         estimate D2E/DX2                !
 ! D81   D(12,21,22,23)         -0.0001         estimate D2E/DX2                !
 ! D82   D(12,21,22,27)        179.9999         estimate D2E/DX2                !
 ! D83   D(25,21,22,23)       -180.0            estimate D2E/DX2                !
 ! D84   D(25,21,22,27)          0.0            estimate D2E/DX2                !
 ! D85   D(21,22,23,24)          0.001          estimate D2E/DX2                !
 ! D86   D(21,22,23,28)       -179.999          estimate D2E/DX2                !
 ! D87   D(27,22,23,24)       -179.999          estimate D2E/DX2                !
 ! D88   D(27,22,23,28)          0.001          estimate D2E/DX2                !
 ! D89   D(22,23,24,13)         -0.0002         estimate D2E/DX2                !
 ! D90   D(22,23,24,26)        179.9999         estimate D2E/DX2                !
 ! D91   D(28,23,24,13)        179.9999         estimate D2E/DX2                !
 ! D92   D(28,23,24,26)          0.0            estimate D2E/DX2                !
 ! D93   D(14,29,30,31)       -179.8158         estimate D2E/DX2                !
 ! D94   D(14,29,30,35)          0.1981         estimate D2E/DX2                !
 ! D95   D(34,29,30,31)         -0.0881         estimate D2E/DX2                !
 ! D96   D(34,29,30,35)        179.9258         estimate D2E/DX2                !
 ! D97   D(14,29,34,33)        179.8159         estimate D2E/DX2                !
 ! D98   D(14,29,34,37)         -0.1981         estimate D2E/DX2                !
 ! D99   D(30,29,34,33)          0.0882         estimate D2E/DX2                !
 ! D100  D(30,29,34,37)       -179.9258         estimate D2E/DX2                !
 ! D101  D(29,30,31,32)          0.0439         estimate D2E/DX2                !
 ! D102  D(29,30,31,36)       -179.9474         estimate D2E/DX2                !
 ! D103  D(35,30,31,32)       -179.9702         estimate D2E/DX2                !
 ! D104  D(35,30,31,36)          0.0385         estimate D2E/DX2                !
 ! D105  D(30,31,32,33)          0.0017         estimate D2E/DX2                !
 ! D106  D(30,31,32,38)       -179.9946         estimate D2E/DX2                !
 ! D107  D(36,31,32,33)        179.993          estimate D2E/DX2                !
 ! D108  D(36,31,32,38)         -0.0033         estimate D2E/DX2                !
 ! D109  D(31,32,33,34)         -0.0016         estimate D2E/DX2                !
 ! D110  D(31,32,33,39)       -179.9928         estimate D2E/DX2                !
 ! D111  D(38,32,33,34)        179.9946         estimate D2E/DX2                !
 ! D112  D(38,32,33,39)          0.0035         estimate D2E/DX2                !
 ! D113  D(32,33,34,29)         -0.044          estimate D2E/DX2                !
 ! D114  D(32,33,34,37)        179.9701         estimate D2E/DX2                !
 ! D115  D(39,33,34,29)        179.9471         estimate D2E/DX2                !
 ! D116  D(39,33,34,37)         -0.0387         estimate D2E/DX2                !
 ! D117  D(11,40,41,42)        179.8158         estimate D2E/DX2                !
 ! D118  D(11,40,41,48)         -0.198          estimate D2E/DX2                !
 ! D119  D(45,40,41,42)          0.0881         estimate D2E/DX2                !
 ! D120  D(45,40,41,48)       -179.9257         estimate D2E/DX2                !
 ! D121  D(11,40,45,44)       -179.8158         estimate D2E/DX2                !
 ! D122  D(11,40,45,50)          0.1981         estimate D2E/DX2                !
 ! D123  D(41,40,45,44)         -0.0881         estimate D2E/DX2                !
 ! D124  D(41,40,45,50)        179.9258         estimate D2E/DX2                !
 ! D125  D(40,41,42,43)         -0.044          estimate D2E/DX2                !
 ! D126  D(40,41,42,46)        179.9472         estimate D2E/DX2                !
 ! D127  D(48,41,42,43)        179.97           estimate D2E/DX2                !
 ! D128  D(48,41,42,46)         -0.0388         estimate D2E/DX2                !
 ! D129  D(41,42,43,44)         -0.0016         estimate D2E/DX2                !
 ! D130  D(41,42,43,47)        179.9946         estimate D2E/DX2                !
 ! D131  D(46,42,43,44)       -179.9927         estimate D2E/DX2                !
 ! D132  D(46,42,43,47)          0.0035         estimate D2E/DX2                !
 ! D133  D(42,43,44,45)          0.0016         estimate D2E/DX2                !
 ! D134  D(42,43,44,49)        179.993          estimate D2E/DX2                !
 ! D135  D(47,43,44,45)       -179.9946         estimate D2E/DX2                !
 ! D136  D(47,43,44,49)         -0.0032         estimate D2E/DX2                !
 ! D137  D(43,44,45,40)          0.0439         estimate D2E/DX2                !
 ! D138  D(43,44,45,50)       -179.9702         estimate D2E/DX2                !
 ! D139  D(49,44,45,40)       -179.9475         estimate D2E/DX2                !
 ! D140  D(49,44,45,50)          0.0384         estimate D2E/DX2                !
 --------------------------------------------------------------------------------
 Trust Radius=3.00D-01 FncErr=1.00D-07 GrdErr=1.00D-06 EigMax=2.50D+02 EigMin=1.00D-04
 Number of steps in this run=    295 maximum allowed number of steps=    300.
 GradGradGradGradGradGradGradGradGradGradGradGradGradGradGradGradGradGrad

                          Input orientation:                          
 ---------------------------------------------------------------------
 Center     Atomic      Atomic             Coordinates (Angstroms)
 Number     Number       Type             X           Y           Z
 ---------------------------------------------------------------------
      1          6           0        1.408115    4.195025    0.000036
      2          6           0        0.715488    5.368534    0.000004
      3          6           0       -0.715513    5.368531   -0.000053
      4          6           0       -1.408135    4.195018   -0.000074
      5          6           0       -0.721127    2.935485   -0.000039
      6          6           0        0.721113    2.935489    0.000012
      7          6           0        1.400430    1.724649    0.000032
      8          6           0        0.722642    0.487159    0.000005
      9          6           0       -0.722644    0.487156   -0.000012
     10          6           0       -1.400438    1.724642   -0.000048
     11          6           0        1.424299   -0.746363    0.000005
     12          6           0        0.723322   -1.955610    0.000004
     13          6           0       -0.723313   -1.955613    0.000015
     14          6           0       -1.424296   -0.746369    0.000001
     15          1           0        2.494316    4.191760    0.000078
     16          1           0        1.246070    6.315259    0.000022
     17          1           0       -1.246101    6.315253   -0.000078
     18          1           0       -2.494336    4.191748   -0.000116
     19          1           0        2.485549    1.729377    0.000069
     20          1           0       -2.485557    1.729365   -0.000084
     21          6           0        1.404070   -3.221751   -0.000024
     22          6           0        0.713922   -4.395748   -0.000005
     23          6           0       -0.713900   -4.395751    0.000045
     24          6           0       -1.404055   -3.221758    0.000053
     25          1           0        2.488246   -3.224913   -0.000062
     26          1           0       -2.488231   -3.224927    0.000090
     27          1           0        1.248740   -5.340100   -0.000028
     28          1           0       -1.248714   -5.340107    0.000076
     29          6           0       -2.917988   -0.741674    0.000000
     30          6           0       -3.628846   -0.736867   -1.205377
     31          6           0       -5.022118   -0.728630   -1.205616
     32          6           0       -5.721693   -0.724175   -0.000003
     33          6           0       -5.022116   -0.727956    1.205612
     34          6           0       -3.628845   -0.736192    1.205375
     35          1           0       -3.080857   -0.739867   -2.142504
     36          1           0       -5.561015   -0.725836   -2.147775
     37          1           0       -3.080854   -0.738667    2.142504
     38          1           0       -6.806940   -0.717848   -0.000003
     39          1           0       -5.561011   -0.724639    2.147770
     40          6           0        2.917992   -0.741664    0.000007
     41          6           0        3.628849   -0.736159   -1.205368
     42          6           0        5.022120   -0.727918   -1.205605
     43          6           0        5.721696   -0.724156    0.000011
     44          6           0        5.022121   -0.728636    1.205624
     45          6           0        3.628849   -0.736877    1.205384
     46          1           0        5.561016   -0.724582   -2.147762
     47          1           0        6.806943   -0.717825    0.000012
     48          1           0        3.080858   -0.738618   -2.142497
     49          1           0        5.561017   -0.725856    2.147782
     50          1           0        3.080859   -0.739896    2.142511
 ---------------------------------------------------------------------
                    Distance matrix (angstroms):
                    1          2          3          4          5
     1  C    0.000000
     2  C    1.362665   0.000000
     3  C    2.426296   1.431001   0.000000
     4  C    2.816250   2.426296   1.362666   0.000000
     5  C    2.473886   2.825525   2.433052   1.434714   0.000000
     6  C    1.434713   2.433052   2.825524   2.473886   1.442240
     7  C    2.470388   3.707701   4.213679   3.740422   2.442771
     8  C    3.770695   4.881380   5.088819   4.276497   2.842318
     9  C    4.276497   5.088819   4.881380   3.770695   2.448329
    10  C    3.740423   4.213679   3.707701   2.470388   1.388382
    11  C    4.941415   6.155841   6.478482   5.695606   4.261321
    12  C    6.188639   7.324148   7.464133   6.509480   5.099926
    13  C    6.509480   7.464133   7.324148   6.188638   4.891098
    14  C    5.695606   6.478481   6.155841   4.941413   3.748399
    15  H    1.086206   2.132845   3.418741   3.902452   3.452144
    16  H    2.126417   1.085267   2.178096   3.397091   3.910593
    17  H    3.397091   2.178097   1.085268   2.126418   3.420297
    18  H    3.902452   3.418742   2.132845   1.086206   2.173124
    19  H    2.690778   4.046799   4.846673   4.608705   3.425999
    20  H    4.608705   4.846673   4.046799   2.690777   2.137274
    21  C    7.416777   8.617839   8.847914   7.932021   6.513679
    22  C    8.618775   9.764282   9.868355   8.848977   7.470364
    23  C    8.848976   9.868354   9.764282   8.618775   7.331240
    24  C    7.932022   8.847914   8.617839   7.416777   6.195001
    25  H    7.498144   8.774395   9.171224   8.380761   6.946264
    26  H    8.380764   9.171226   8.774397   7.498146   6.408848
    27  H    9.536457  10.721903  10.887289   9.898356   8.506802
    28  H    9.898358  10.887290  10.721904   9.536458   8.292392
    29  C    6.564005   7.108923   6.495037   5.162420   4.283421
    30  C    7.151752   7.589605   6.871405   5.541462   4.836718
    31  C    8.188032   8.458667   7.561455   6.225473   5.777342
    32  C    8.662141   8.863318   7.885614   6.542572   6.196674
    33  C    8.187614   8.458178   7.560927   6.224967   5.776928
    34  C    7.151273   7.589060   6.870823   5.540893   4.836224
    35  H    7.006747   7.504341   6.891841   5.633924   4.864843
    36  H    8.797542   9.008262   8.076689   6.787771   6.437589
    37  H    7.005878   7.503361   6.890810   5.632928   4.863969
    38  H    9.572014   9.676310   8.611010   7.299544   7.098166
    39  H    8.796850   9.007447   8.075810   6.786946   6.436930
    40  C    5.162425   6.495040   7.108927   6.564008   5.173453
    41  C    5.540869   6.870798   7.589039   7.151255   5.818598
    42  C    6.224947   7.560906   8.458160   8.187599   6.918005
    43  C    6.542578   7.885619   8.863323   8.662145   7.409652
    44  C    6.225506   7.561487   8.458696   8.188056   6.918403
    45  C    5.541496   6.871438   7.589635   7.151778   5.819070
    46  H    6.786911   8.075773   9.007413   8.796823   7.581169
    47  H    7.299551   8.611016   9.676315   9.572018   8.367706
    48  H    5.632881   6.890761   7.503317   7.005840   5.704757
    49  H    6.787818   8.076738   9.008306   8.797577   7.581813
    50  H    5.633979   6.891896   7.504392   7.006791   5.705615
                    6          7          8          9         10
     6  C    0.000000
     7  C    1.388382   0.000000
     8  C    2.448330   1.410949   0.000000
     9  C    2.842317   2.457404   1.445286   0.000000
    10  C    2.442771   2.800868   2.457404   1.410949   0.000000
    11  C    3.748400   2.471127   1.419119   2.476072   3.752999
    12  C    4.891099   3.742029   2.442769   2.838648   4.249072
    13  C    5.099926   4.249072   2.838648   2.442769   3.742028
    14  C    4.261321   3.753000   2.476072   1.419119   2.471126
    15  H    2.173123   2.698745   4.106446   4.906416   4.610399
    16  H    3.420296   4.593204   5.851558   6.151636   5.298846
    17  H    3.910593   5.298846   6.151636   5.851557   4.593205
    18  H    3.452144   4.610399   4.906417   4.106445   2.698745
    19  H    2.137274   1.085129   2.156605   3.440293   3.885990
    20  H    3.425999   3.885990   3.440293   2.156605   1.085129
    21  C    6.195001   4.946401   3.770989   4.275383   5.686130
    22  C    7.331241   6.158779   4.882915   5.089840   6.475314
    23  C    7.470364   6.475314   5.089839   4.882915   6.158778
    24  C    6.513680   5.686130   4.275384   3.770990   4.946401
    25  H    6.408846   5.067693   4.110576   4.908082   6.294439
    26  H    6.946266   6.294441   4.908084   4.110579   5.067694
    27  H    8.292392   7.066377   5.850959   6.151688   7.545113
    28  H    8.506804   7.545114   6.151689   5.850961   7.066378
    29  C    5.173450   4.973076   3.842423   2.515861   2.895803
    30  C    5.819047   5.727625   4.678315   3.375966   3.532371
    31  C    6.918382   6.980064   5.994492   4.627861   4.537456
    32  C    7.409648   7.531359   6.557193   5.143716   4.966885
    33  C    6.918019   6.979813   5.994350   4.627687   4.537114
    34  C    5.818615   5.727320   4.678135   3.375728   3.531932
    35  H    5.705576   5.544929   4.534594   3.414239   3.672565
    36  H    7.581782   7.686330   6.750456   5.430844   5.284692
    37  H    5.704792   5.544368   4.534262   3.413821   3.671814
    38  H    8.367703   8.563102   7.625395   6.202475   5.932623
    39  H    7.581193   7.685926   6.750233   5.430581   5.284171
    40  C    4.283425   2.895806   2.515863   3.842425   4.973078
    41  C    4.836204   3.531914   3.375718   4.678127   5.727309
    42  C    5.776913   4.537101   4.627680   5.994345   6.979804
    43  C    6.196679   4.966889   5.143717   6.557194   7.531361
    44  C    5.777368   4.537478   4.627871   5.994500   6.980078
    45  C    4.836747   3.532398   3.375980   4.678325   5.727641
    46  H    6.436903   5.284149   5.430569   6.750224   7.685910
    47  H    7.098171   5.932627   6.202476   7.625396   8.563104
    48  H    4.863929   3.671778   3.413799   4.534247   5.544344
    49  H    6.437626   5.284722   5.430859   6.750468   7.686350
    50  H    4.864890   3.672607   3.414262   4.534611   5.544955
                   11         12         13         14         15
    11  C    0.000000
    12  C    1.397729   0.000000
    13  C    2.464655   1.446635   0.000000
    14  C    2.848595   2.464656   1.397730   0.000000
    15  H    5.052722   6.397388   6.938540   6.304018   0.000000
    16  H    7.063871   8.287372   8.502105   7.549665   2.463202
    17  H    7.549666   8.502106   8.287372   7.063870   4.301156
    18  H    6.304018   6.938540   6.397388   5.052721   4.988652
    19  H    2.693611   4.084675   4.886302   4.627765   2.462399
    20  H    4.627764   4.886302   4.084675   2.693610   5.555405
    21  C    2.475471   1.437543   2.475654   3.758613   7.493249
    22  C    3.717882   2.440156   2.831943   4.229650   8.770125
    23  C    4.229649   2.831942   2.440156   3.717883   9.167224
    24  C    3.758612   2.475654   1.437544   2.475472   8.376010
    25  H    2.697257   2.173956   3.453293   4.631540   7.416675
    26  H    4.631541   3.453294   2.173958   2.697259   8.934933
    27  H    4.597090   3.425031   3.917109   5.314836   9.612898
    28  H    5.314836   3.917109   3.425032   4.597092  10.240447
    29  C    4.342290   3.838330   2.508036   1.493699   7.323374
    30  C    5.194931   4.677568   3.373490   2.512582   7.952207
    31  C    6.558211   5.997423   4.630201   3.794489   9.064255
    32  C    7.146026   6.561604   5.147839   4.297454   9.574404
    33  C    6.558208   5.997556   4.630369   3.794489   9.063866
    34  C    5.194929   4.677741   3.373721   2.512582   7.951764
    35  H    4.988669   4.532124   3.409757   2.708240   7.745589
    36  H    7.308077   6.754124   5.434033   4.661095   9.679069
    37  H    4.988664   4.532440   3.410164   2.708240   7.744780
    38  H    8.231288   7.631311   6.208267   5.382720  10.517491
    39  H    7.308072   6.754334   5.434287   4.661094   9.678422
    40  C    1.493700   2.508035   3.838330   4.342291   4.951583
    41  C    2.512582   3.373732   4.677748   5.194930   5.198524
    42  C    3.794490   4.630376   5.997562   6.558209   5.660980
    43  C    4.297454   5.147837   6.561602   7.146027   5.880664
    44  C    3.794490   4.630190   5.997414   6.558211   5.661575
    45  C    2.512582   3.373476   4.677558   5.194931   5.199172
    46  H    4.661095   5.434300   6.754345   7.308074   6.179667
    47  H    5.382720   6.208265   7.631309   8.231288   6.534736
    48  H    2.708240   3.410184   4.532455   4.988664   5.407706
    49  H    4.661095   5.434017   6.754111   7.308076   6.180634
    50  H    2.708240   3.409733   4.532106   4.988668   5.408815
                   16         17         18         19         20
    16  H    0.000000
    17  H    2.492171   0.000000
    18  H    4.301155   2.463202   0.000000
    19  H    4.750434   5.912315   5.555405   0.000000
    20  H    5.912315   4.750434   2.462399   4.971106   0.000000
    21  C    9.538319   9.898376   8.376010   5.067866   6.296249
    22  C   10.724218  10.888858   9.167225   6.376192   6.910403
    23  C   10.888857  10.724218   8.770125   6.910403   6.376191
    24  C    9.898376   9.538319   7.493249   6.296249   5.067866
    25  H    9.620701  10.245004   8.934931   4.954291   7.020227
    26  H   10.245006   9.620703   7.416678   7.020229   4.954293
    27  H   11.655359  11.919374  10.240446   7.176852   7.995143
    28  H   11.919375  11.655360   9.612899   7.995144   7.176853
    29  C    8.193881   7.252270   4.951579   5.941743   2.508591
    30  C    8.657383   7.540730   5.199136   6.702334   2.973574
    31  C    9.505794   8.082569   5.661540   7.991279   3.732183
    32  C    9.904714   8.341731   5.880657   8.566139   4.061088
    33  C    9.505287   8.082003   5.661002   7.991048   3.731791
    34  C    8.656826   7.540124   5.198549   6.702060   2.973081
    35  H    8.549124   7.598094   5.408758   6.455437   3.322868
    36  H   10.026288   8.532762   6.180582   8.682655   4.483194
    37  H    8.548121   7.597023   5.407755   6.454929   3.322084
    38  H   10.691846   8.965904   6.534729   9.609332   4.966206
    39  H   10.025435   8.531810   6.179706   8.682277   4.482614
    40  C    7.252274   8.193885   7.323377   2.508595   5.941744
    41  C    7.540099   8.656805   7.951748   2.973059   6.702050
    42  C    8.081982   9.505269   9.063853   3.731775   7.991041
    43  C    8.341738   9.904720   9.574408   4.061092   8.566141
    44  C    8.082604   9.505824   9.064277   3.732210   7.991291
    45  C    7.540766   8.657414   7.952230   2.973605   6.702348
    46  H    8.531770  10.025401   9.678398   4.482587   8.682264
    47  H    8.965912  10.691852  10.517495   4.966210   9.609334
    48  H    7.596974   8.548078   7.744746   3.322045   6.454909
    49  H    8.532816  10.026334   9.679102   4.483229   8.682672
    50  H    7.598153   8.549175   7.745629   3.322915   6.455459
                   21         22         23         24         25
    21  C    0.000000
    22  C    1.361827   0.000000
    23  C    2.421585   1.427822   0.000000
    24  C    2.808125   2.421586   1.361827   0.000000
    25  H    1.084181   2.125813   3.409487   3.892302   0.000000
    26  H    3.892302   3.409488   2.125813   1.084181   4.976477
    27  H    2.124036   1.085279   2.178015   3.394804   2.451610
    28  H    3.394804   2.178016   1.085281   2.124037   4.294056
    29  C    4.983068   5.151993   4.267351   2.905651   5.949272
    30  C    5.740886   5.805167   4.830878   3.546469   6.712821
    31  C    6.997499   6.914001   5.784647   4.556282   8.005645
    32  C    7.550787   7.409291   6.209546   4.987977   8.582353
    33  C    6.997745   6.914358   5.785053   4.556620   8.005872
    34  C    5.741187   5.805594   4.831366   3.546904   6.713093
    35  H    5.555586   5.688244   4.853709   3.682662   6.463778
    36  H    7.704209   7.579974   6.447940   5.303122   8.697624
    37  H    5.556139   5.689017   4.854572   3.683408   6.464277
    38  H    8.584301   8.371996   7.117029   5.954891   9.627349
    39  H    7.704605   7.580552   6.448587   5.303638   8.697993
    40  C    2.905648   4.267347   5.151989   4.983067   2.520160
    41  C    3.546923   4.831386   5.805610   5.741199   2.991260
    42  C    4.556634   5.785069   6.914370   6.997755   3.756173
    43  C    4.987973   6.209540   7.409285   7.550784   4.087662
    44  C    4.556260   5.784620   6.913978   6.997485   3.755742
    45  C    3.546442   4.830849   5.805142   5.740869   2.990719
    46  H    5.303662   6.448615   7.580576   7.704623   4.506239
    47  H    5.954887   7.117023   8.371990   8.584298   4.993659
    48  H    3.683444   4.854612   5.689051   5.556163   3.335098
    49  H    5.303091   6.447901   7.579940   7.704187   4.505601
    50  H    3.682619   4.853660   5.688201   5.555557   3.334234
                   26         27         28         29         30
    26  H    0.000000
    27  H    4.294055   0.000000
    28  H    2.451609   2.497454   0.000000
    29  C    2.520166   6.205412   4.892041   0.000000
    30  C    2.990752   6.814211   5.320523   1.399384   0.000000
    31  C    3.755770   7.876723   6.079308   2.425086   1.393296
    32  C    4.087669   8.360245   6.427625   2.803760   2.415180
    33  C    3.756158   7.877124   6.079788   2.425086   2.784627
    34  C    2.991240   6.814675   5.321072   1.399384   2.410752
    35  H    3.334282   6.670664   5.395332   2.148686   1.085591
    36  H    4.505639   8.501589   6.670885   3.405698   2.149770
    37  H    3.335061   6.671508   5.396294   2.148687   3.392434
    38  H    4.993665   9.287583   7.229049   3.889025   3.399054
    39  H    4.506212   8.502248   6.671659   3.405698   3.870014
    40  C    5.949272   4.892036   6.205410   5.835980   6.656881
    41  C    6.713104   5.321094   6.814694   6.656877   7.257695
    42  C    8.005881   6.079806   7.877139   8.031126   8.650971
    43  C    8.582351   6.427618   8.360240   8.639702   9.427924
    44  C    8.005634   6.079276   7.876699   8.031129   8.980658
    45  C    6.712808   5.320489   6.814185   6.656880   7.647608
    46  H    8.698010   6.671693   8.502276   8.746810   9.238063
    47  H    9.627348   7.229042   9.287578   9.724960  10.505190
    48  H    6.464299   5.396338   6.671545   6.369965   6.774830
    49  H    8.697605   6.670837   8.501552   8.746813   9.782504
    50  H    6.463754   5.395277   6.670620   6.369970   7.498567
                   31         32         33         34         35
    31  C    0.000000
    32  C    1.393889   0.000000
    33  C    2.411228   1.393890   0.000000
    34  C    2.784626   2.415180   1.393295   0.000000
    35  H    2.155546   3.400672   3.870208   3.392432   0.000000
    36  H    1.085395   2.153775   3.396413   3.870013   2.480203
    37  H    3.870209   3.400673   2.155546   1.085592   4.285008
    38  H    2.153882   1.085265   2.153882   3.399053   4.298196
    39  H    3.396413   2.153775   1.085394   2.149769   4.955587
    40  C    8.031130   8.639703   8.031126   6.656877   6.369972
    41  C    8.650970   9.427920   8.980651   7.647601   6.774835
    42  C   10.044238  10.811245  10.329600   8.980651   8.156970
    43  C   10.811249  11.443389  10.811243   9.427919   9.059556
    44  C   10.329609  10.811249  10.044237   8.650969   8.767459
    45  C    8.980658   9.427924   8.650970   7.257694   7.498568
    46  H   10.624989  11.485312  11.101703   9.782495   8.641888
    47  H   11.890346  12.528638  11.890341  10.505185  10.117285
    48  H    8.156964   9.059547   8.767447   7.498558   6.161715
    49  H   11.101713  11.485318  10.624989   9.238063   9.648250
    50  H    8.767458   9.059555   8.156968   6.774833   7.505205
                   36         37         38         39         40
    36  H    0.000000
    37  H    4.955588   0.000000
    38  H    2.483006   4.298196   0.000000
    39  H    4.295545   2.480202   2.483005   0.000000
    40  C    8.746815   6.369965   9.724961   8.746809   0.000000
    41  C    9.238065   7.498558  10.505186   9.782494   1.399384
    42  C   10.624991   8.767448  11.890342  11.101702   2.425086
    43  C   11.485319   9.059546  12.528638  11.485310   2.803759
    44  C   11.101714   8.156963  11.890346  10.624986   2.425086
    45  C    9.782505   6.774829  10.505190   9.238061   1.399384
    46  H   11.122031   9.648238  12.553057  11.922713   3.405698
    47  H   12.553065  10.117274  13.613883  12.553055   3.889024
    48  H    8.641884   7.505193  10.117275   9.648237   2.148688
    49  H   11.922726   8.641882  12.553064  11.122028   3.405696
    50  H    9.648251   6.161713  10.117283   8.641885   2.148686
                   41         42         43         44         45
    41  C    0.000000
    42  C    1.393295   0.000000
    43  C    2.415179   1.393890   0.000000
    44  C    2.784627   2.411229   1.393890   0.000000
    45  C    2.410752   2.784628   2.415180   1.393296   0.000000
    46  H    2.149770   1.085394   2.153775   3.396413   3.870014
    47  H    3.399053   2.153882   1.085265   2.153882   3.399054
    48  H    1.085592   2.155546   3.400673   3.870209   3.392433
    49  H    3.870012   3.396413   2.153774   1.085393   2.149769
    50  H    3.392433   3.870209   3.400673   2.155547   1.085592
                   46         47         48         49         50
    46  H    0.000000
    47  H    2.483005   0.000000
    48  H    2.480203   4.298196   0.000000
    49  H    4.295544   2.483005   4.955587   0.000000
    50  H    4.955588   4.298196   4.285008   2.480203   0.000000
 Stoichiometry    C30H20
 Framework group  C1[X(C30H20)]
 Deg. of freedom   144
 Full point group                 C1      NOp   1
 Largest Abelian subgroup         C1      NOp   1
 Largest concise Abelian subgroup C1      NOp   1
                         Standard orientation:                         
 ---------------------------------------------------------------------
 Center     Atomic      Atomic             Coordinates (Angstroms)
 Number     Number       Type             X           Y           Z
 ---------------------------------------------------------------------
      1          6           0        1.408114    4.195025    0.000036
      2          6           0        0.715487    5.368534    0.000004
      3          6           0       -0.715514    5.368531   -0.000053
      4          6           0       -1.408136    4.195018   -0.000074
      5          6           0       -0.721128    2.935485   -0.000039
      6          6           0        0.721112    2.935489    0.000012
      7          6           0        1.400430    1.724649    0.000032
      8          6           0        0.722642    0.487159    0.000005
      9          6           0       -0.722644    0.487156   -0.000012
     10          6           0       -1.400438    1.724642   -0.000048
     11          6           0        1.424299   -0.746363    0.000005
     12          6           0        0.723322   -1.955610    0.000004
     13          6           0       -0.723313   -1.955613    0.000015
     14          6           0       -1.424296   -0.746369    0.000001
     15          1           0        2.494315    4.191760    0.000078
     16          1           0        1.246069    6.315259    0.000022
     17          1           0       -1.246102    6.315253   -0.000078
     18          1           0       -2.494337    4.191747   -0.000116
     19          1           0        2.485549    1.729377    0.000069
     20          1           0       -2.485557    1.729364   -0.000084
     21          6           0        1.404071   -3.221751   -0.000024
     22          6           0        0.713923   -4.395748   -0.000005
     23          6           0       -0.713899   -4.395751    0.000045
     24          6           0       -1.404054   -3.221758    0.000053
     25          1           0        2.488247   -3.224913   -0.000062
     26          1           0       -2.488230   -3.224928    0.000090
     27          1           0        1.248741   -5.340100   -0.000028
     28          1           0       -1.248713   -5.340107    0.000076
     29          6           0       -2.917988   -0.741675   -0.000000
     30          6           0       -3.628846   -0.736868   -1.205377
     31          6           0       -5.022118   -0.728631   -1.205616
     32          6           0       -5.721693   -0.724176   -0.000003
     33          6           0       -5.022116   -0.727957    1.205612
     34          6           0       -3.628845   -0.736193    1.205375
     35          1           0       -3.080857   -0.739868   -2.142504
     36          1           0       -5.561015   -0.725837   -2.147775
     37          1           0       -3.080854   -0.738668    2.142504
     38          1           0       -6.806940   -0.717849   -0.000003
     39          1           0       -5.561011   -0.724640    2.147770
     40          6           0        2.917992   -0.741663    0.000007
     41          6           0        3.628849   -0.736158   -1.205368
     42          6           0        5.022120   -0.727917   -1.205605
     43          6           0        5.721696   -0.724155    0.000011
     44          6           0        5.022121   -0.728635    1.205624
     45          6           0        3.628849   -0.736876    1.205384
     46          1           0        5.561016   -0.724581   -2.147762
     47          1           0        6.806943   -0.717824    0.000012
     48          1           0        3.080858   -0.738617   -2.142497
     49          1           0        5.561017   -0.725855    2.147782
     50          1           0        3.080859   -0.739895    2.142511
 ---------------------------------------------------------------------
 Rotational constants (GHZ):           0.1888914           0.1418721           0.0858831
 Standard basis: 6-31G(d,p) (6D, 7F)
 There are   550 symmetry adapted cartesian basis functions of A   symmetry.
 There are   550 symmetry adapted basis functions of A   symmetry.
   550 basis functions,   980 primitive gaussians,   550 cartesian basis functions
   100 alpha electrons      100 beta electrons
       nuclear repulsion energy      2563.2235262933 Hartrees.
 NAtoms=   50 NActive=   50 NUniq=   50 SFac= 1.00D+00 NAtFMM=   60 NAOKFM=F Big=F
 Integral buffers will be    131072 words long.
 Raffenetti 2 integral format.
 Two-electron integral symmetry is turned on.
 Nuclear repulsion after empirical dispersion term =     2563.1824772838 Hartrees.
 Using the following non-standard input for PCM:
 Eps=3.0
 EpsInf=3.24
 --- end of non-standard input.
 ------------------------------------------------------------------------------
 Polarizable Continuum Model (PCM)
 =================================
 Model                : PCM.
 Atomic radii         : UFF (Universal Force Field).
 Polarization charges : Total charges.
 Charge compensation  : None.
 Solution method      : On-the-fly selection.
 Cavity type          : Scaled VdW (van der Waals Surface) (Alpha=1.100).
 Cavity algorithm     : GePol (No added spheres)
                        Default sphere list used, NSphG=   50.
                        Lebedev-Laikov grids with approx.  5.0 points / Ang**2.
                        Smoothing algorithm: York/Karplus (Gamma=1.0000).
                        Polarization charges: spherical gaussians, with
                                              point-specific exponents (IZeta= 3).
                        Self-potential: point-specific (ISelfS= 7).
                        Self-field    : sphere-specific E.n sum rule (ISelfD= 2).
 1st derivatives      : Analytical E(r).r(x)/FMM algorithm (CHGder, D1EAlg=3).
                        Cavity 1st derivative terms included.
 Solvent              : Water, Eps=   3.000000 Eps(inf)=   3.240000
 ------------------------------------------------------------------------------
 One-electron integrals computed using PRISM.
 NBasis=   550 RedAO= T EigKep=  1.27D-04  NBF=   550
 NBsUse=   550 1.00D-06 EigRej= -1.00D+00 NBFU=   550
 ExpMin= 1.61D-01 ExpMax= 3.05D+03 ExpMxC= 4.57D+02 IAcc=3 IRadAn=         5 AccDes= 0.00D+00
 Harris functional with IExCor= 4639 and IRadAn=       5 diagonalized for initial guess.
 HarFok:  IExCor= 4639 AccDes= 0.00D+00 IRadAn=         5 IDoV= 1 UseB2=F ITyADJ=14
 ICtDFT=  3500011 ScaDFX=  1.000000  1.000000  1.000000  1.000000
 FoFCou: FMM=F IPFlag=           0 FMFlag=      100000 FMFlg1=           0
         NFxFlg=           0 DoJE=T BraDBF=F KetDBF=T FulRan=T
         wScrn=  0.000000 ICntrl=       500 IOpCl=  0 I1Cent=   200000004 NGrid=           0
         NMat0=    1 NMatS0=      1 NMatT0=    0 NMatD0=    1 NMtDS0=    0 NMtDT0=    0
 Petite list used in FoFCou.
 Requested convergence on RMS density matrix=1.00D-08 within 128 cycles.
 Requested convergence on MAX density matrix=1.00D-06.
 Requested convergence on             energy=1.00D-06.
 No special actions if energy rises.
 Inv3:  Mode=1 IEnd=    39487152.
 Iteration    1 A*A^-1 deviation from unit magnitude is 9.33D-15 for   2997.
 Iteration    1 A*A^-1 deviation from orthogonality  is 7.39D-15 for   1926    651.
 Iteration    1 A^-1*A deviation from unit magnitude is 9.10D-15 for   2885.
 Iteration    1 A^-1*A deviation from orthogonality  is 5.63D-15 for   2943   1067.
 Error on total polarization charges =  0.00801
 SCF Done:  E(RwB97XD) =  -1154.98169493     A.U. after   13 cycles
            NFock= 13  Conv=0.45D-08     -V/T= 2.0094

 **********************************************************************

            Population analysis using the SCF Density.

 **********************************************************************

 Orbital symmetries:
       Occupied  (A) (A) (A) (A) (A) (A) (A) (A) (A) (A) (A) (A)
                 (A) (A) (A) (A) (A) (A) (A) (A) (A) (A) (A) (A)
                 (A) (A) (A) (A) (A) (A) (A) (A) (A) (A) (A) (A)
                 (A) (A) (A) (A) (A) (A) (A) (A) (A) (A) (A) (A)
                 (A) (A) (A) (A) (A) (A) (A) (A) (A) (A) (A) (A)
                 (A) (A) (A) (A) (A) (A) (A) (A) (A) (A) (A) (A)
                 (A) (A) (A) (A) (A) (A) (A) (A) (A) (A) (A) (A)
                 (A) (A) (A) (A) (A) (A) (A) (A) (A) (A) (A) (A)
                 (A) (A) (A) (A)
       Virtual   (A) (A) (A) (A) (A) (A) (A) (A) (A) (A) (A) (A)
                 (A) (A) (A) (A) (A) (A) (A) (A) (A) (A) (A) (A)
                 (A) (A) (A) (A) (A) (A) (A) (A) (A) (A) (A) (A)
                 (A) (A) (A) (A) (A) (A) (A) (A) (A) (A) (A) (A)
                 (A) (A) (A) (A) (A) (A) (A) (A) (A) (A) (A) (A)
                 (A) (A) (A) (A) (A) (A) (A) (A) (A) (A) (A) (A)
                 (A) (A) (A) (A) (A) (A) (A) (A) (A) (A) (A) (A)
                 (A) (A) (A) (A) (A) (A) (A) (A) (A) (A) (A) (A)
                 (A) (A) (A) (A) (A) (A) (A) (A) (A) (A) (A) (A)
                 (A) (A) (A) (A) (A) (A) (A) (A) (A) (A) (A) (A)
                 (A) (A) (A) (A) (A) (A) (A) (A) (A) (A) (A) (A)
                 (A) (A) (A) (A) (A) (A) (A) (A) (A) (A) (A) (A)
                 (A) (A) (A) (A) (A) (A) (A) (A) (A) (A) (A) (A)
                 (A) (A) (A) (A) (A) (A) (A) (A) (A) (A) (A) (A)
                 (A) (A) (A) (A) (A) (A) (A) (A) (A) (A) (A) (A)
                 (A) (A) (A) (A) (A) (A) (A) (A) (A) (A) (A) (A)
                 (A) (A) (A) (A) (A) (A) (A) (A) (A) (A) (A) (A)
                 (A) (A) (A) (A) (A) (A) (A) (A) (A) (A) (A) (A)
                 (A) (A) (A) (A) (A) (A) (A) (A) (A) (A) (A) (A)
                 (A) (A) (A) (A) (A) (A) (A) (A) (A) (A) (A) (A)
                 (A) (A) (A) (A) (A) (A) (A) (A) (A) (A) (A) (A)
                 (A) (A) (A) (A) (A) (A) (A) (A) (A) (A) (A) (A)
                 (A) (A) (A) (A) (A) (A) (A) (A) (A) (A) (A) (A)
                 (A) (A) (A) (A) (A) (A) (A) (A) (A) (A) (A) (A)
                 (A) (A) (A) (A) (A) (A) (A) (A) (A) (A) (A) (A)
                 (A) (A) (A) (A) (A) (A) (A) (A) (A) (A) (A) (A)
                 (A) (A) (A) (A) (A) (A) (A) (A) (A) (A) (A) (A)
                 (A) (A) (A) (A) (A) (A) (A) (A) (A) (A) (A) (A)
                 (A) (A) (A) (A) (A) (A) (A) (A) (A) (A) (A) (A)
                 (A) (A) (A) (A) (A) (A) (A) (A) (A) (A) (A) (A)
                 (A) (A) (A) (A) (A) (A) (A) (A) (A) (A) (A) (A)
                 (A) (A) (A) (A) (A) (A) (A) (A) (A) (A) (A) (A)
                 (A) (A) (A) (A) (A) (A) (A) (A) (A) (A) (A) (A)
                 (A) (A) (A) (A) (A) (A) (A) (A) (A) (A) (A) (A)
                 (A) (A) (A) (A) (A) (A) (A) (A) (A) (A) (A) (A)
                 (A) (A) (A) (A) (A) (A) (A) (A) (A) (A) (A) (A)
                 (A) (A) (A) (A) (A) (A) (A) (A) (A) (A) (A) (A)
                 (A) (A) (A) (A) (A) (A)
 The electronic state is 1-A.
 Alpha  occ. eigenvalues --  -10.29111 -10.29079 -10.29061 -10.29035 -10.29003
 Alpha  occ. eigenvalues --  -10.28985 -10.28878 -10.28878 -10.28758 -10.28718
 Alpha  occ. eigenvalues --  -10.28023 -10.28023 -10.28007 -10.28007 -10.27968
 Alpha  occ. eigenvalues --  -10.27949 -10.27949 -10.27938 -10.27936 -10.27936
 Alpha  occ. eigenvalues --  -10.27915 -10.27915 -10.27875 -10.27864 -10.27812
 Alpha  occ. eigenvalues --  -10.27770 -10.27767 -10.27766 -10.27628 -10.27626
 Alpha  occ. eigenvalues --   -0.96704  -0.94151  -0.93685  -0.92645  -0.90517
 Alpha  occ. eigenvalues --   -0.87747  -0.86434  -0.84447  -0.82246  -0.81874
 Alpha  occ. eigenvalues --   -0.81873  -0.81580  -0.80974  -0.79692  -0.76038
 Alpha  occ. eigenvalues --   -0.72781  -0.69597  -0.68915  -0.67448  -0.67434
 Alpha  occ. eigenvalues --   -0.67094  -0.66445  -0.66017  -0.63056  -0.62302
 Alpha  occ. eigenvalues --   -0.59443  -0.58364  -0.58088  -0.56213  -0.55844
 Alpha  occ. eigenvalues --   -0.54882  -0.52602  -0.51911  -0.51607  -0.51565
 Alpha  occ. eigenvalues --   -0.51304  -0.50794  -0.50348  -0.49337  -0.48649
 Alpha  occ. eigenvalues --   -0.48279  -0.48237  -0.47640  -0.47591  -0.46867
 Alpha  occ. eigenvalues --   -0.46676  -0.46177  -0.44445  -0.43428  -0.43042
 Alpha  occ. eigenvalues --   -0.42980  -0.42159  -0.41329  -0.40718  -0.40708
 Alpha  occ. eigenvalues --   -0.40618  -0.39968  -0.39157  -0.39154  -0.37134
 Alpha  occ. eigenvalues --   -0.36169  -0.34784  -0.33702  -0.31309  -0.31291
 Alpha  occ. eigenvalues --   -0.30809  -0.30694  -0.29228  -0.29024  -0.23071
 Alpha virt. eigenvalues --   -0.02784   0.03338   0.03874   0.05250   0.05391
 Alpha virt. eigenvalues --    0.05544   0.05905   0.08880   0.10537   0.10704
 Alpha virt. eigenvalues --    0.16848   0.16966   0.17621   0.18215   0.18333
 Alpha virt. eigenvalues --    0.19713   0.21362   0.21810   0.22232   0.22244
 Alpha virt. eigenvalues --    0.22282   0.22860   0.23459   0.23643   0.24680
 Alpha virt. eigenvalues --    0.24883   0.25075   0.25534   0.26305   0.26331
 Alpha virt. eigenvalues --    0.26401   0.26404   0.26990   0.27857   0.29243
 Alpha virt. eigenvalues --    0.29301   0.30572   0.31488   0.32220   0.33364
 Alpha virt. eigenvalues --    0.34302   0.35038   0.35757   0.37046   0.37258
 Alpha virt. eigenvalues --    0.37272   0.37342   0.37602   0.38351   0.39524
 Alpha virt. eigenvalues --    0.39646   0.40607   0.41695   0.42598   0.42645
 Alpha virt. eigenvalues --    0.45335   0.46600   0.49339   0.51181   0.51886
 Alpha virt. eigenvalues --    0.52938   0.53001   0.55680   0.55983   0.57486
 Alpha virt. eigenvalues --    0.57894   0.58136   0.59101   0.59184   0.59332
 Alpha virt. eigenvalues --    0.59706   0.60020   0.60967   0.61243   0.61513
 Alpha virt. eigenvalues --    0.61524   0.61681   0.62080   0.62243   0.62446
 Alpha virt. eigenvalues --    0.62790   0.63095   0.64032   0.64403   0.64884
 Alpha virt. eigenvalues --    0.65170   0.65609   0.65699   0.66142   0.66548
 Alpha virt. eigenvalues --    0.66597   0.66867   0.66993   0.67211   0.67512
 Alpha virt. eigenvalues --    0.67544   0.68337   0.68587   0.68671   0.68756
 Alpha virt. eigenvalues --    0.68825   0.68859   0.69142   0.69269   0.69736
 Alpha virt. eigenvalues --    0.70137   0.70645   0.71860   0.72317   0.72658
 Alpha virt. eigenvalues --    0.74055   0.74145   0.74954   0.77743   0.78201
 Alpha virt. eigenvalues --    0.81443   0.82470   0.83375   0.83382   0.83573
 Alpha virt. eigenvalues --    0.83951   0.85794   0.86165   0.86471   0.88434
 Alpha virt. eigenvalues --    0.88477   0.88759   0.88870   0.89631   0.89793
 Alpha virt. eigenvalues --    0.90134   0.90250   0.90271   0.90310   0.90443
 Alpha virt. eigenvalues --    0.91609   0.91655   0.92437   0.92594   0.93186
 Alpha virt. eigenvalues --    0.93649   0.93682   0.93891   0.95039   0.95266
 Alpha virt. eigenvalues --    0.96477   0.96986   0.97296   0.98074   0.99513
 Alpha virt. eigenvalues --    1.01040   1.01486   1.01718   1.02047   1.02545
 Alpha virt. eigenvalues --    1.03239   1.03526   1.05799   1.07117   1.07725
 Alpha virt. eigenvalues --    1.10127   1.10827   1.11006   1.11215   1.12009
 Alpha virt. eigenvalues --    1.12291   1.13440   1.16588   1.16813   1.16989
 Alpha virt. eigenvalues --    1.18451   1.19087   1.19973   1.20899   1.22210
 Alpha virt. eigenvalues --    1.22321   1.23022   1.23432   1.25151   1.25306
 Alpha virt. eigenvalues --    1.26051   1.26916   1.27919   1.29264   1.30671
 Alpha virt. eigenvalues --    1.30808   1.31679   1.31709   1.32369   1.32482
 Alpha virt. eigenvalues --    1.33569   1.36005   1.36122   1.38085   1.40640
 Alpha virt. eigenvalues --    1.41030   1.41348   1.41523   1.42024   1.42458
 Alpha virt. eigenvalues --    1.42990   1.45229   1.45259   1.45534   1.46544
 Alpha virt. eigenvalues --    1.46563   1.47646   1.47711   1.47750   1.48483
 Alpha virt. eigenvalues --    1.48721   1.48953   1.49175   1.49898   1.49939
 Alpha virt. eigenvalues --    1.50797   1.51183   1.52034   1.52891   1.53035
 Alpha virt. eigenvalues --    1.58710   1.60011   1.60415   1.63760   1.64124
 Alpha virt. eigenvalues --    1.68087   1.69688   1.70478   1.73181   1.76139
 Alpha virt. eigenvalues --    1.78775   1.80085   1.82678   1.83046   1.84349
 Alpha virt. eigenvalues --    1.84546   1.84709   1.85432   1.86510   1.87013
 Alpha virt. eigenvalues --    1.88563   1.89829   1.90579   1.91055   1.92413
 Alpha virt. eigenvalues --    1.93306   1.93416   1.94615   1.94739   1.95114
 Alpha virt. eigenvalues --    1.96062   1.96190   1.96632   1.96690   1.96691
 Alpha virt. eigenvalues --    1.97918   1.98521   1.99058   1.99383   1.99659
 Alpha virt. eigenvalues --    2.00078   2.00327   2.00986   2.01516   2.01997
 Alpha virt. eigenvalues --    2.03778   2.03917   2.03920   2.04101   2.05689
 Alpha virt. eigenvalues --    2.05827   2.06052   2.06362   2.07195   2.07705
 Alpha virt. eigenvalues --    2.08591   2.08765   2.09082   2.10397   2.12489
 Alpha virt. eigenvalues --    2.14014   2.14507   2.15954   2.16933   2.17782
 Alpha virt. eigenvalues --    2.18129   2.18791   2.23679   2.24822   2.26803
 Alpha virt. eigenvalues --    2.27505   2.29017   2.29366   2.29567   2.31923
 Alpha virt. eigenvalues --    2.33628   2.34494   2.35759   2.36808   2.37315
 Alpha virt. eigenvalues --    2.38331   2.39424   2.39621   2.39890   2.39916
 Alpha virt. eigenvalues --    2.41435   2.41690   2.42296   2.43043   2.43265
 Alpha virt. eigenvalues --    2.43945   2.44361   2.44391   2.45215   2.45436
 Alpha virt. eigenvalues --    2.46517   2.47147   2.47404   2.47551   2.48084
 Alpha virt. eigenvalues --    2.48840   2.49374   2.49658   2.49849   2.50616
 Alpha virt. eigenvalues --    2.51310   2.51702   2.52197   2.52407   2.54462
 Alpha virt. eigenvalues --    2.54936   2.56379   2.56719   2.57317   2.57332
 Alpha virt. eigenvalues --    2.57528   2.57671   2.60061   2.60842   2.61039
 Alpha virt. eigenvalues --    2.61943   2.62574   2.62744   2.64003   2.66035
 Alpha virt. eigenvalues --    2.66054   2.66499   2.66549   2.67296   2.67928
 Alpha virt. eigenvalues --    2.68519   2.69282   2.69371   2.69996   2.70900
 Alpha virt. eigenvalues --    2.71306   2.72546   2.72987   2.73191   2.76765
 Alpha virt. eigenvalues --    2.77659   2.78548   2.80437   2.80718   2.80930
 Alpha virt. eigenvalues --    2.81879   2.83257   2.83315   2.85294   2.85479
 Alpha virt. eigenvalues --    2.85777   2.86946   2.89263   2.89613   2.90291
 Alpha virt. eigenvalues --    2.94747   2.96308   2.97649   2.99687   3.01926
 Alpha virt. eigenvalues --    3.06402   3.07079   3.08837   3.12724   3.13666
 Alpha virt. eigenvalues --    3.13691   3.14139   3.17032   3.20600   3.21510
 Alpha virt. eigenvalues --    3.26582   3.27611   3.28354   3.28805   3.29753
 Alpha virt. eigenvalues --    3.31498   3.31978   3.32259   3.32320   3.32333
 Alpha virt. eigenvalues --    3.33024   3.35372   3.37990   3.42787   3.42887
 Alpha virt. eigenvalues --    3.42893   3.46204   3.48616   3.49810   3.53537
 Alpha virt. eigenvalues --    3.55906   3.56496   3.56988   3.58516   3.58565
 Alpha virt. eigenvalues --    3.76597   3.92481   3.94519   3.97245   3.97702
 Alpha virt. eigenvalues --    4.18415   4.19056   4.20154   4.22529   4.22720
 Alpha virt. eigenvalues --    4.22865   4.23361   4.23495   4.23921   4.23964
 Alpha virt. eigenvalues --    4.25504   4.27605   4.35275   4.38083   4.39094
 Alpha virt. eigenvalues --    4.41003   4.46229   4.46950   4.51511   4.51586
 Alpha virt. eigenvalues --    4.54741   4.56630   4.57266   4.60662   4.66546
 Alpha virt. eigenvalues --    4.74699   4.90415   4.91796   4.94012   5.08429
          Condensed to atoms (all electrons):
               1          2          3          4          5          6
     1  C    4.996593   0.552600  -0.033079  -0.058809  -0.033240   0.443028
     2  C    0.552600   4.901000   0.469709  -0.033078  -0.031410  -0.021683
     3  C   -0.033079   0.469709   4.901000   0.552600  -0.021683  -0.031410
     4  C   -0.058809  -0.033078   0.552600   4.996594   0.443028  -0.033240
     5  C   -0.033240  -0.031410  -0.021683   0.443028   4.740936   0.491990
     6  C    0.443028  -0.021683  -0.031410  -0.033240   0.491990   4.740937
     7  C   -0.075666   0.007122  -0.000797   0.013533  -0.025867   0.447724
     8  C    0.006981  -0.000345   0.000046  -0.000119  -0.027012  -0.011326
     9  C   -0.000119   0.000046  -0.000345   0.006981  -0.011326  -0.027012
    10  C    0.013533  -0.000797   0.007122  -0.075666   0.447724  -0.025867
    11  C   -0.000199   0.000003   0.000000  -0.000005  -0.000438   0.007050
    12  C    0.000000  -0.000000  -0.000000   0.000000   0.000029  -0.000236
    13  C    0.000000  -0.000000  -0.000000   0.000000  -0.000236   0.000029
    14  C   -0.000005   0.000000   0.000003  -0.000199   0.007050  -0.000438
    15  H    0.377636  -0.036696   0.003624   0.000383   0.003405  -0.036508
    16  H   -0.029042   0.377520  -0.034664   0.003162   0.000884   0.001998
    17  H    0.003162  -0.034663   0.377520  -0.029042   0.001998   0.000884
    18  H    0.000383   0.003624  -0.036696   0.377636  -0.036508   0.003405
    19  H   -0.005612   0.000130   0.000022  -0.000185   0.003465  -0.033649
    20  H   -0.000185   0.000022   0.000130  -0.005612  -0.033649   0.003465
    21  C   -0.000000   0.000000  -0.000000   0.000000   0.000000   0.000001
    22  C    0.000000  -0.000000   0.000000  -0.000000  -0.000000  -0.000000
    23  C   -0.000000   0.000000  -0.000000   0.000000  -0.000000  -0.000000
    24  C    0.000000  -0.000000   0.000000  -0.000000   0.000001   0.000000
    25  H   -0.000000  -0.000000   0.000000  -0.000000  -0.000000   0.000000
    26  H   -0.000000   0.000000  -0.000000  -0.000000   0.000000  -0.000000
    27  H   -0.000000   0.000000  -0.000000   0.000000   0.000000  -0.000000
    28  H    0.000000  -0.000000   0.000000  -0.000000  -0.000000   0.000000
    29  C    0.000000   0.000000  -0.000000  -0.000015   0.000734   0.000011
    30  C    0.000000  -0.000000  -0.000000  -0.000005   0.000059   0.000002
    31  C    0.000000  -0.000000   0.000000   0.000000  -0.000007   0.000000
    32  C    0.000000  -0.000000   0.000000   0.000000  -0.000002   0.000000
    33  C    0.000000  -0.000000   0.000000   0.000000  -0.000007   0.000000
    34  C    0.000000  -0.000000  -0.000000  -0.000005   0.000059   0.000002
    35  H   -0.000000  -0.000000   0.000000  -0.000000  -0.000005   0.000000
    36  H    0.000000  -0.000000  -0.000000  -0.000000   0.000000   0.000000
    37  H   -0.000000  -0.000000   0.000000  -0.000000  -0.000005   0.000000
    38  H    0.000000   0.000000  -0.000000   0.000000  -0.000000  -0.000000
    39  H    0.000000  -0.000000  -0.000000  -0.000000   0.000000   0.000000
    40  C   -0.000015  -0.000000   0.000000   0.000000   0.000011   0.000734
    41  C   -0.000005  -0.000000  -0.000000   0.000000   0.000002   0.000059
    42  C    0.000000   0.000000  -0.000000   0.000000   0.000000  -0.000007
    43  C    0.000000   0.000000  -0.000000   0.000000   0.000000  -0.000002
    44  C    0.000000   0.000000  -0.000000   0.000000   0.000000  -0.000007
    45  C   -0.000005  -0.000000  -0.000000   0.000000   0.000002   0.000059
    46  H   -0.000000  -0.000000  -0.000000   0.000000   0.000000   0.000000
    47  H    0.000000  -0.000000   0.000000   0.000000  -0.000000  -0.000000
    48  H   -0.000000   0.000000  -0.000000  -0.000000   0.000000  -0.000005
    49  H   -0.000000  -0.000000  -0.000000   0.000000   0.000000   0.000000
    50  H   -0.000000   0.000000  -0.000000  -0.000000   0.000000  -0.000005
               7          8          9         10         11         12
     1  C   -0.075666   0.006981  -0.000119   0.013533  -0.000199   0.000000
     2  C    0.007122  -0.000345   0.000046  -0.000797   0.000003  -0.000000
     3  C   -0.000797   0.000046  -0.000345   0.007122   0.000000  -0.000000
     4  C    0.013533  -0.000119   0.006981  -0.075666  -0.000005   0.000000
     5  C   -0.025867  -0.027012  -0.011326   0.447724  -0.000438   0.000029
     6  C    0.447724  -0.011326  -0.027012  -0.025867   0.007050  -0.000236
     7  C    5.312574   0.422045  -0.040638  -0.104877  -0.085358   0.010314
     8  C    0.422045   4.933448   0.388825  -0.040638   0.370710   0.030265
     9  C   -0.040638   0.388825   4.933447   0.422045   0.001060  -0.070450
    10  C   -0.104877  -0.040638   0.422045   5.312574   0.015468  -0.001111
    11  C   -0.085358   0.370710   0.001060   0.015468   5.273506   0.413195
    12  C    0.010314   0.030265  -0.070450  -0.001111   0.413195   4.899103
    13  C   -0.001111  -0.070450   0.030266   0.010314  -0.002815   0.392283
    14  C    0.015468   0.001060   0.370710  -0.085358  -0.095802  -0.002815
    15  H   -0.005135   0.000199   0.000011  -0.000159  -0.000001   0.000000
    16  H   -0.000175   0.000003  -0.000001   0.000009  -0.000000  -0.000000
    17  H    0.000009  -0.000001   0.000003  -0.000175  -0.000000   0.000000
    18  H   -0.000159   0.000011   0.000199  -0.005135   0.000000  -0.000000
    19  H    0.361035  -0.025637   0.003782   0.000534  -0.013514  -0.000131
    20  H    0.000534   0.003782  -0.025637   0.361035  -0.000203   0.000043
    21  C   -0.000132   0.009556  -0.000756  -0.000000  -0.089797   0.457101
    22  C    0.000001  -0.000347   0.000071   0.000000   0.008450  -0.019571
    23  C    0.000000   0.000071  -0.000347   0.000001  -0.001102  -0.031991
    24  C   -0.000000  -0.000756   0.009556  -0.000132   0.013928  -0.041783
    25  H   -0.000005  -0.000014   0.000027   0.000000  -0.013869  -0.029122
    26  H    0.000000   0.000027  -0.000014  -0.000005  -0.000169   0.004020
    27  H   -0.000000   0.000004  -0.000001  -0.000000  -0.000182   0.001725
    28  H   -0.000000  -0.000001   0.000004  -0.000000   0.000013   0.000941
    29  C   -0.000108   0.008235  -0.072049  -0.015011  -0.000477   0.007943
    30  C   -0.000006  -0.000170  -0.003024   0.000293   0.000040  -0.000161
    31  C   -0.000000   0.000005   0.000168  -0.000246  -0.000000   0.000005
    32  C   -0.000000  -0.000000   0.000044  -0.000025   0.000000  -0.000000
    33  C   -0.000000   0.000005   0.000168  -0.000246  -0.000000   0.000005
    34  C   -0.000006  -0.000170  -0.003030   0.000291   0.000040  -0.000161
    35  H    0.000001  -0.000069   0.000599   0.000266  -0.000005  -0.000070
    36  H    0.000000  -0.000000  -0.000002   0.000000   0.000000  -0.000000
    37  H    0.000001  -0.000069   0.000600   0.000266  -0.000005  -0.000070
[...]
 00000466,0.,-0.00000459,-0.00000013,0.,0.00000236,0.00000035,0.,-0.000
 00540,0.00000485,0.,0.00002076,-0.00000225,0.,0.00014302,0.00002558,0.
 00000001,0.00000939,-0.00003228,0.00000003,0.00000899,-0.00000017,0.,0
 .00000411,-0.00109164,-0.00000044,-0.00014136,0.00002684,-0.00000001,-
 0.00001106,-0.00003221,0.00000004,0.00000095,-0.00000633,0.,-0.0000030
 9,-0.00000283,0.,0.00000140,-0.00000262,0.,-0.00000105,0.00000037,0.,-
 0.00000079,-0.00000062,0.,-0.00001403,0.00003548,0.,0.00000166,-0.0000
 0308,0.,-0.00001997,-0.00000056,0.,-0.00000091,0.00000238,0.,-0.000004
 57,-0.00000502,0.,-0.00000629,0.00000112,0.,0.00001466,0.00003496,0.,-
 0.00000188,-0.00000353,0.,-0.00000200,-0.00000548,0.,-0.00000052,-0.00
 000064,0.,0.00000070,0.00000028,0.,-0.00000031,-0.00000092,0.00000025,
 0.,-0.00000054,0.,-0.00000011,-0.00000032,0.,0.,-0.00000054,0.,-0.0000
 0031,-0.00000092,-0.00000025,0.00000010,0.00000092,0.00000008,-0.00000
 009,0.00000043,-0.00000006,0.00000010,0.00000092,-0.00000008,-0.000000
 08,0.00000038,0.,-0.00000008,0.00000043,0.00000006,0.00001427,-0.00086
 296,0.00000006,-0.00004057,0.00752868,-0.00001778,-0.00007700,0.003130
 59,0.00002123,-0.00185905,-0.03779542,0.00000745,-0.00009533,0.0031305
 0,-0.00002260,-0.00004198,0.00752870,0.00002573,0.00002890,-0.00412893
 ,-0.00000249,0.00204969,0.02637113,0.,0.,0.00000016,0.,0.,-0.00000041,
 0.,0.,0.00000009,0.,0.,-0.00000006,0.,0.,-0.00000044,-0.00000001,0.,0.
 00000087,0.,0.,0.00002724,0.00000006,0.00000003,-0.00000255,0.00000001
 ,0.,-0.00000900,0.,0.,0.00000053,0.,-0.00000040,0.00021608,-0.00000006
 ,0.00000002,0.00000087,-0.00000001,0.,-0.00001301,0.,0.,0.00000195,0.,
 0.,0.00000083,0.,0.,0.00000056,0.,0.,0.00000014,0.,0.,-0.00000028,-0.0
 0000001,0.,-0.00002741,0.,0.,-0.00000164,-0.00000001,0.,0.00002495,0.,
 0.,0.00000302,0.,0.,-0.00000043,0.,0.,0.00000061,0.00000001,0.,-0.0000
 2454,0.,0.,-0.00000133,0.,0.,-0.00000005,0.,0.,-0.00000049,0.,0.,0.000
 00300,0.00000094,0.,-0.00000199,0.00000040,0.,0.00000109,0.,0.,0.00000
 012,-0.00000040,0.,0.00000109,-0.00000094,0.,-0.00000199,0.00000060,0.
 ,0.00000079,0.00000019,0.,0.00000002,-0.00000060,0.,0.00000079,0.,0.,0
 .00000022,-0.00000019,0.,0.00000002,0.00000001,0.00000012,-0.00133136,
 -0.00222483,-0.00000968,-0.00469255,-0.02851870,-0.00017419,0.00521926
 ,-0.00000027,0.00000735,-0.06084107,0.02851870,0.00017286,0.00521931,0
 .00222479,0.00001756,-0.00469254,0.00044011,-0.00000097,0.00088785,0.0
 0000031,-0.00001064,0.05894906,0.00002989,-0.00000273,0.00000592,-0.00
 001376,-0.00001938,0.00000266,0.00000053,-0.00000385,0.00000044,-0.000
 01967,-0.00000463,-0.00000072,0.00001165,0.00002188,0.00000089,-0.0000
 3362,-0.00000918,-0.00000910,0.00006887,0.00000739,0.00000643,0.000173
 45,0.00012080,-0.00004719,0.00000271,0.00004232,-0.00004234,-0.0000154
 6,-0.00001123,-0.00000437,0.00098464,0.00006952,0.00065487,0.00017012,
 -0.00014076,-0.00009185,-0.00001600,-0.00005194,-0.00004725,0.00002905
 ,0.00000489,0.00001600,-0.00001064,-0.00000330,-0.00000626,-0.00000112
 ,-0.00000625,-0.00000190,0.00000150,-0.00000549,-0.00000041,0.00000404
 ,0.00000109,0.,-0.00001215,-0.00002478,-0.00002677,0.00000553,-0.00000
 652,-0.00000196,0.00007722,-0.00001981,0.00001804,-0.00004369,0.000038
 16,-0.00000449,-0.00000941,-0.00001579,0.00000048,-0.00000560,0.000003
 30,-0.00000431,-0.00001568,0.00002402,-0.00002646,0.00000743,0.0000052
 8,-0.00000178,-0.00000021,0.00001335,-0.00000192,0.00000420,0.00000970
 ,-0.00000061,-0.00005560,-0.00000150,0.00000711,0.00003258,-0.00000031
 ,-0.00001031,0.00000120,0.00000018,0.00000153,0.00000712,-0.00000010,-
 0.00000046,0.00000317,0.00000014,-0.00000613,0.00003205,-0.00000033,0.
 00001915,-0.00000901,-0.00000016,-0.00000758,0.00000671,-0.00000002,0.
 00000351,-0.00000576,-0.00000008,0.00000295,0.00000496,-0.00000010,-0.
 00000060,0.00000696,-0.00000003,-0.00000345,0.01025349,0.00002562,0.01
 498689,-0.13224506,-0.00045989,-0.12451488,-0.00952058,-0.00006071,-0.
 02882292,-0.00553978,-0.00008169,0.00145201,-0.00070230,0.00000002,0.0
 0084364,-0.00126049,-0.00004669,0.00327089,0.00090899,0.00003108,0.000
 30274,-0.00068630,-0.00000595,-0.00144360,0.13666395,0.00000714,-0.000
 00282,0.00001596,0.00000146,0.00000369,0.00000488,0.00001228,-0.000013
 01,0.00000136,-0.00001107,-0.00000552,0.00000349,0.00001413,0.00000384
 ,-0.00000258,-0.00004614,-0.00004043,0.00000404,0.00009858,0.00001874,
 0.00011945,0.00049325,0.00024978,-0.00005984,0.00008614,-0.00009344,0.
 00007124,0.00001237,0.00000160,-0.00000093,0.00003816,-0.00383711,0.00
 000121,-0.00048146,0.00022783,0.00007032,-0.00009520,-0.00009688,-0.00
 007596,0.00000423,-0.00006934,0.00000167,-0.00000891,-0.00000886,-0.00
 001291,0.00000036,0.00000039,-0.00000259,-0.00000302,0.00000253,-0.000
 00138,-0.00000334,0.00000098,-0.00000139,-0.00016572,0.00008045,-0.000
 09221,0.00000572,-0.00000913,-0.00000639,-0.00010857,0.00003495,-0.000
 09269,0.00004114,-0.00004575,-0.00002649,-0.00002496,-0.00001535,-0.00
 000049,-0.00000672,0.00001035,0.00000039,0.00016511,0.00007473,0.00008
 335,-0.00000539,-0.00001168,0.00000429,-0.00000103,-0.00000746,0.00000
 753,0.00000800,-0.00000025,0.00000160,0.00000052,-0.00000445,0.0000013
 3,0.00000024,-0.00000599,0.00000015,0.00000008,-0.00000196,0.00000026,
 -0.00000011,-0.00000056,0.00000001,0.00000005,-0.00000073,0.,-0.000000
 22,-0.00000236,-0.00000060,0.00000015,0.00000666,0.00000021,-0.0000000
 2,0.00000161,-0.00000007,0.00000008,0.00000211,-0.00000006,-0.00000012
 ,0.00000092,0.,-0.00000013,0.00000058,0.00000010,0.00001229,0.00341514
 ,0.00012575,-0.00039885,-0.03808895,-0.00060982,-0.00009861,0.00319659
 ,-0.00016693,-0.00007325,0.00750382,0.00002488,0.00000860,-0.00056696,
 -0.00000508,-0.00006278,0.00670758,0.00001538,0.00002567,-0.00415084,0
 .00000046,-0.00000513,0.00014449,-0.00000741,0.00055424,0.02627904,-0.
 00002104,0.00000737,0.00000889,0.00001206,0.00000892,0.00000391,-0.000
 00305,0.00000181,0.00000129,0.00001521,0.00000393,0.00000370,-0.000010
 56,-0.00001904,-0.00000260,0.00003143,-0.00002436,-0.00000179,-0.00000
 100,-0.00004514,0.00008522,0.00038029,-0.00015447,0.00001402,0.0000236
 4,-0.00010960,-0.00005408,0.00002933,0.00001780,0.00000501,-0.00146999
 ,-0.00004253,0.00076817,0.00040321,0.00018280,0.00006905,0.00002634,0.
 00011843,-0.00006678,-0.00001280,-0.00000304,-0.00001270,0.00000350,-0
 .00000061,-0.00001060,0.00000098,0.00000552,-0.00000125,-0.00000212,0.
 00000477,-0.00000166,-0.00000419,-0.00000054,-0.00000220,-0.00005560,0
 .00005301,-0.00008522,-0.00000028,-0.00000250,-0.00000168,-0.00000246,
 0.00004574,0.00006714,0.00003718,0.00000316,0.00002235,0.00000189,0.00
 001543,0.00000066,0.00002512,-0.00001313,0.00000494,-0.00005097,-0.000
 04851,-0.00008015,-0.00000141,0.00000447,-0.00000138,-0.00000025,-0.00
 000646,-0.00001170,-0.00000419,-0.00000637,-0.00000271,0.00003434,0.00
 000040,0.00001572,-0.00001300,-0.00000003,-0.00000173,0.00000076,-0.00
 000014,0.00000428,-0.00000463,0.00000007,0.00000104,-0.00000243,-0.000
 00008,0.00000644,-0.00002460,0.00000016,-0.00001949,0.00000758,0.00000
 023,0.00000871,-0.00000261,0.00000006,-0.00000198,0.00000295,0.0000000
 6,0.00000022,-0.00000358,0.00000008,0.00000079,-0.00000595,0.00000004,
 0.00000294,-0.01576418,-0.00010222,-0.01830654,-0.12390371,-0.00054709
 ,-0.27348265,0.00301752,0.00001509,0.00435511,0.00065205,0.00000664,0.
 00163562,0.00093335,0.00000573,0.00023176,0.00392995,0.00002545,-0.003
 12966,-0.00031294,-0.00000383,0.00067778,0.00014828,0.00000175,0.00009
 738,0.13287569,0.00060424,0.28828586,-0.00003337,-0.00000212,0.0000095
 2,0.00001623,0.00002712,0.00000360,0.00000456,0.00000236,0.00000126,0.
 00001604,0.00000222,0.00000246,-0.00000844,-0.00001519,-0.00000581,0.0
 0001575,0.00001708,-0.00000577,-0.00000162,0.00001974,-0.00000686,-0.0
 0025255,-0.00014441,0.00000540,-0.00004667,0.00000656,0.00007129,-0.00
 000653,-0.00000138,0.00000121,0.00010274,-0.00002461,-0.00129783,-0.00
 025689,0.00012980,0.00000723,-0.00002446,0.00000766,0.00009086,-0.0000
 3303,-0.00000605,-0.00000979,0.00001042,0.00000223,-0.00000684,0.00000
 054,0.00000677,-0.00000223,-0.00000170,0.00000601,-0.00000134,-0.00000
 504,-0.00000042,-0.00000143,0.00000632,-0.00003457,-0.00000788,-0.0000
 0991,0.00001202,0.00000479,-0.00002030,-0.00000253,-0.00002368,0.00002
 956,-0.00005168,0.00000437,0.00001890,0.00001485,-0.00000498,-0.000020
 43,0.00000617,0.00000049,0.00000629,0.00003286,-0.00000723,-0.00001211
 ,-0.00001043,0.00000414,-0.00000071,-0.00001625,0.00000096,-0.00000789
 ,-0.00001167,-0.00000127,0.00006691,0.00000195,-0.00001687,-0.00004078
 ,0.00000049,0.00002128,-0.00000220,-0.00000023,-0.00000623,-0.00000784
 ,0.00000011,0.00000046,-0.00000213,-0.00000012,0.00000817,-0.00003885,
 0.00000045,-0.00002713,0.00000696,0.00000014,0.00000595,-0.00000750,0.
 ,-0.00000293,0.00000671,0.00000002,-0.00000261,-0.00000451,0.00000009,
 0.00000019,-0.00000902,0.,0.00000365,-0.00542302,-0.00005214,0.0012013
 0,-0.00083099,-0.00000312,0.00089319,-0.00110108,-0.00005181,0.0032507
 1,0.01202353,0.00004692,0.01538216,-0.13116607,-0.00052851,-0.12314484
 ,-0.00982894,-0.00006443,-0.02920333,0.00047170,0.00000117,0.00080977,
 0.00072747,0.00002909,-0.00044012,0.00011445,0.00000785,-0.00012502,0.
 13465050,0.00001636,-0.00001815,-0.00000818,-0.00002272,0.00000384,-0.
 00000289,0.00001781,0.00000316,-0.00000046,-0.00000553,-0.00001505,-0.
 00000048,0.00002785,0.00003286,0.00000506,-0.00003858,0.00004307,0.000
 00322,0.00002567,-0.00010352,-0.00002703,-0.00009667,0.00011320,0.0000
 8420,0.00004439,0.00005458,0.00003957,-0.00000287,-0.00004710,-0.00000
 854,0.00003413,0.00003289,-0.00001105,0.00012079,0.00009831,-0.0000822
 8,-0.00006162,0.00004730,-0.00003569,0.00000215,-0.00007536,-0.0000003
 4,-0.00000555,-0.00000494,0.00000732,0.00000099,-0.00000242,0.00000173
 ,-0.00000095,0.00000039,0.00000076,-0.00000100,-0.00000038,0.00000044,
 -0.00000973,0.00000826,0.00000456,-0.00000178,0.00000067,-0.00000483,-
 0.00002604,-0.00009137,0.00002413,0.00004475,0.00002330,0.00000230,-0.
 00003634,0.00001383,-0.00000427,0.00000526,-0.00003622,0.00000856,0.00
 000927,0.00000926,-0.00000210,0.00000109,0.00000021,0.00000397,-0.0000
 0144,-0.00000555,-0.00000100,-0.00000078,-0.00000034,-0.00000112,-0.00
 000029,-0.00000357,0.00000025,0.00000019,-0.00000068,0.00000009,0.0000
 0007,-0.00000028,0.00000011,-0.00000007,-0.00000044,0.,0.00000005,-0.0
 0000070,-0.00000011,0.00000014,-0.00000150,-0.00000009,0.00000003,0.00
 000058,0.00000004,0.,0.00000045,-0.00000003,0.00000002,0.00000161,-0.0
 0000006,-0.00000003,0.00000043,0.,0.,0.00000073,0.00000002,-0.00011314
 ,0.00758681,-0.00000637,-0.00000776,-0.00067374,0.00000015,-0.00004676
 ,0.00733146,0.00002886,0.00005990,0.00334025,0.00009052,-0.00051068,-0
 .03800694,-0.00064887,-0.00010497,0.00324305,-0.00015801,0.00000170,0.
 00015757,0.00000559,0.00002917,-0.00412897,-0.00000202,0.00000787,-0.0
 0120645,-0.00000073,0.00061444,0.02642645,-0.00002053,0.00000202,0.000
 00410,0.00001004,0.00001039,0.00000224,-0.00000020,0.00000144,0.000000
 55,0.00000868,0.00000141,0.00000072,-0.00000855,-0.00000653,0.00000035
 ,0.00000002,-0.00001361,-0.00000282,0.00000668,0.00002611,0.00000881,-
 0.00007430,-0.00006898,-0.00002753,-0.00001138,0.00000966,-0.00000519,
 -0.00000736,0.00000319,0.00000210,0.00024767,-0.00000499,0.00009307,-0
 .00006629,0.00006566,-0.00002788,-0.00000735,-0.00000107,-0.00000602,-
 0.00000198,-0.00000255,0.00000112,0.00000433,-0.00000117,-0.00000576,0
 .00000017,0.00000507,-0.00000138,-0.00000140,0.00000371,-0.00000067,-0
 .00000325,0.00000024,-0.00000048,-0.00000281,-0.00004014,-0.00000870,-
 0.00000457,0.00000625,-0.00000043,0.00000337,-0.00002024,0.00000771,0.
 00000417,-0.00000289,0.00000208,0.00000207,0.00000581,0.00000202,-0.00
 001121,-0.00000163,0.00000217,-0.00000461,0.00003871,-0.00000854,-0.00
 000541,-0.00000472,-0.00000047,-0.00000031,-0.00000860,-0.00000341,-0.
 00000606,-0.00000569,-0.00000104,0.00002576,0.00000050,-0.00000007,-0.
 00001437,0.00000010,0.00000712,-0.00000069,-0.00000009,-0.00000096,-0.
 00000333,0.00000006,0.00000017,-0.00000072,-0.00000007,0.00000180,-0.0
 0001531,0.00000012,-0.00000937,0.00000345,0.00000011,0.00000294,-0.000
 00293,0.00000003,-0.00000179,0.00000351,0.00000007,-0.00000198,-0.0000
 0272,0.00000006,0.00000002,-0.00000365,0.00000002,0.00000210,0.0008394
 4,0.00000974,0.00173238,0.00085934,0.00000626,0.00020479,0.00401997,0.
 00002744,-0.00304589,-0.01666776,-0.00008843,-0.01743753,-0.12309828,-
 0.00065446,-0.27602048,0.00280774,0.00001770,0.00388385,-0.00080977,-0
 .00000479,-0.00108818,0.00019101,-0.00000061,0.00088786,-0.00013227,-0
 .00000136,-0.00002567,0.13225465,0.00069430,0.29020440,0.00002987,-0.0
 0000275,-0.00000591,-0.00001378,-0.00001936,-0.00000266,0.00000055,-0.
 00000384,-0.00000044,-0.00001966,-0.00000465,0.00000072,0.00001169,0.0
 0002191,-0.00000089,-0.00003364,-0.00000911,0.00000908,0.00006878,0.00
 000719,-0.00000633,0.00017343,0.00012086,0.00004720,0.00000282,0.00004
 244,0.00004225,-0.00001546,-0.00001130,0.00000438,0.00098468,0.0000700
 7,-0.00065490,0.00017021,-0.00014070,0.00009185,-0.00001614,-0.0000518
 3,0.00004734,0.00002906,0.00000471,-0.00001600,-0.00001063,-0.00000329
 ,0.00000625,-0.00000112,-0.00000625,0.00000190,0.00000150,-0.00000549,
 0.00000041,0.00000404,0.00000109,0.,-0.00001212,-0.00002477,0.00002672
 ,0.00000553,-0.00000652,0.00000197,0.00007731,-0.00001998,-0.00001814,
 -0.00004365,0.00003820,0.00000450,-0.00000946,-0.00001576,-0.00000047,
 -0.00000560,0.00000325,0.00000430,-0.00001571,0.00002402,0.00002651,0.
 00000743,0.00000528,0.00000177,-0.00000021,0.00001336,0.00000192,0.000
 00420,0.00000970,0.00000061,-0.00005560,-0.00000151,-0.00000711,0.0000
 3205,-0.00000035,-0.00001915,0.00000317,0.00000016,0.00000613,0.000007
 12,-0.00000010,0.00000046,0.00000120,0.00000017,-0.00000153,0.00003258
 ,-0.00000030,0.00001031,-0.00000576,-0.00000009,-0.00000295,0.00000696
 ,-0.00000003,0.00000345,-0.00000901,-0.00000015,0.00000758,0.00000496,
 -0.00000010,0.00000060,0.00000671,-0.00000002,-0.00000351,0.01025332,0
 .00003493,-0.01498691,-0.00126049,-0.00004478,-0.00327092,-0.00070230,
 0.00000056,-0.00084364,-0.00553978,-0.00008083,-0.00145204,-0.00952051
 ,-0.00007901,0.02882285,-0.13224431,-0.00054054,0.12451428,0.00011445,
 0.00000781,0.00013227,-0.00068629,-0.00000687,0.00144360,0.00061543,0.
 00000290,-0.00079007,0.00090899,0.00003122,-0.00030272,0.13666320,0.00
 000712,-0.00000283,-0.00001593,0.00000146,0.00000370,-0.00000488,0.000
 01229,-0.00001300,-0.00000136,-0.00001104,-0.00000553,-0.00000350,0.00
 001415,0.00000382,0.00000258,-0.00004605,-0.00004034,-0.00000403,0.000
 09849,0.00001862,-0.00011931,0.00049348,0.00024942,0.00005979,0.000086
 12,-0.00009358,-0.00007097,0.00001244,0.00000157,0.00000089,0.00003662
 ,-0.00383726,-0.00000435,-0.00048120,0.00022828,-0.00007054,-0.0000952
 0,-0.00009672,0.00007624,0.00000419,-0.00006936,-0.00000166,-0.0000089
 0,-0.00000885,0.00001291,0.00000036,0.00000040,0.00000259,-0.00000302,
 0.00000253,0.00000138,-0.00000334,0.00000098,0.00000139,-0.00016555,0.
 00008043,0.00009206,0.00000572,-0.00000914,0.00000639,-0.00010867,0.00
 003511,0.00009281,0.00004123,-0.00004584,0.00002650,-0.00002493,-0.000
 01534,0.00000047,-0.00000666,0.00001038,-0.00000042,0.00016527,0.00007
 476,-0.00008348,-0.00000539,-0.00001168,-0.00000429,-0.00000103,-0.000
 00746,-0.00000750,0.00000801,-0.00000025,-0.00000160,0.00000057,-0.000
 00445,-0.00000137,-0.00000026,-0.00000236,0.00000063,0.00000004,-0.000
 00073,-0.00000002,-0.00000012,-0.00000056,-0.00000002,0.00000008,-0.00
 000196,-0.00000026,0.00000022,-0.00000599,-0.00000012,0.00000009,0.000
 00211,0.00000005,-0.00000014,0.00000058,-0.00000011,0.00000016,0.00000
 666,-0.00000023,-0.00000013,0.00000092,0.,-0.00000002,0.00000161,0.000
 00007,0.00000281,0.00341519,-0.00011197,-0.00006037,0.00670758,-0.0000
 0898,0.00000918,-0.00056695,0.00000462,-0.00007287,0.00750380,-0.00002
 121,-0.00009678,0.00319648,0.00016628,-0.00047948,-0.03808970,0.000761
 98,0.00000776,-0.00120645,0.00000061,-0.00000502,0.00014449,0.00000742
 ,0.00000236,0.00031788,-0.00000275,0.00002551,-0.00415082,-0.00000355,
 0.00064043,0.02627985,0.00002103,-0.00000741,0.00000887,-0.00001208,-0
 .00000889,0.00000391,0.00000309,-0.00000181,0.00000129,-0.00001523,-0.
 00000396,0.00000370,0.00001061,0.00001909,-0.00000260,-0.00003157,0.00
 002433,-0.00000182,0.00000118,0.00004480,0.00008510,-0.00037998,0.0001
 5495,0.00001403,-0.00002324,0.00010972,-0.00005414,-0.00002938,-0.0000
 1789,0.00000502,0.00147008,0.00003985,0.00076825,-0.00040343,-0.000182
 43,0.00006905,-0.00002678,-0.00011834,-0.00006672,0.00001281,0.0000026
 7,-0.00001270,-0.00000350,0.00000059,-0.00001059,-0.00000098,-0.000005
 51,-0.00000125,0.00000211,-0.00000476,-0.00000166,0.00000418,0.0000005
 5,-0.00000220,0.00005541,-0.00005303,-0.00008503,0.00000028,0.00000250
 ,-0.00000169,0.00000224,-0.00004601,0.00006719,-0.00003702,-0.00000321
 ,0.00002240,-0.00000200,-0.00001543,0.00000065,-0.00002507,0.00001307,
 0.00000494,0.00005117,0.00004847,-0.00008032,0.00000141,-0.00000447,-0
 .00000138,0.00000025,0.00000646,-0.00001171,0.00000421,0.00000638,-0.0
 0000272,-0.00003434,-0.00000042,0.00001572,0.00002460,-0.00000018,-0.0
 0001949,0.00000243,0.00000010,0.00000644,0.00000463,-0.00000007,0.0000
 0104,-0.00000076,0.00000013,0.00000428,0.00001301,0.00000002,-0.000001
 74,-0.00000295,-0.00000005,0.00000022,0.00000595,-0.00000004,0.0000029
 4,-0.00000758,-0.00000021,0.00000871,0.00000358,-0.00000008,0.00000079
 ,0.00000261,-0.00000006,-0.00000198,0.01576412,0.00011611,-0.01830657,
 -0.00392999,-0.00001893,-0.00312969,-0.00093335,-0.00000626,0.00023176
 ,-0.00065209,-0.00000291,0.00163561,-0.00301754,-0.00001591,0.00435517
 ,0.12390302,0.00069909,-0.27348208,0.00012503,-0.00000003,-0.00002567,
 -0.00014828,-0.00000171,0.00009738,0.00079007,0.00000364,-0.00107376,0
 .00031296,0.00000075,0.00067777,-0.13287493,-0.00077325,0.28828524\\0.
 00174507,-0.00252036,0.00000008,-0.00122297,0.00289932,-0.00000004,0.0
 0122301,0.00289944,0.00000002,-0.00174507,-0.00252034,-0.00000004,-0.0
 0119341,0.00203988,-0.00000010,0.00119341,0.00203993,0.00000007,0.0017
 4603,-0.00104467,0.00000004,0.00156808,0.00010170,0.00000025,-0.001567
 93,0.00010186,-0.00000021,-0.00174605,-0.00104462,-0.00000005,0.001439
 33,0.00118184,0.,0.00092827,-0.00222145,-0.00000034,-0.00092825,-0.002
 22128,0.00000032,-0.00143953,0.00118142,-0.00000003,-0.00003933,0.0000
 1742,-0.00000001,-0.00005046,-0.00001335,0.,0.00005042,-0.00001341,0.,
 0.00003933,0.00001743,0.,-0.00010375,-0.00005321,0.00000001,0.00010382
 ,-0.00005316,-0.00000002,0.00166133,0.00247930,-0.00000002,-0.00132468
 ,-0.00288267,0.,0.00132473,-0.00288248,0.00000002,-0.00166144,0.002479
 33,0.00000002,-0.00008444,0.00000609,0.,0.00008440,0.00000610,0.,-0.00
 005503,-0.00000424,0.,0.00005502,-0.00000423,0.,0.00167377,-0.00000501
 ,0.00000005,0.00058527,-0.00000119,-0.00195493,-0.00091455,0.00000264,
 -0.00173771,-0.00199589,0.00001374,-0.00000015,-0.00091446,0.00000379,
 0.00173786,0.00058516,-0.00000039,0.00195489,-0.00006239,0.00000122,0.
 00004572,0.00002403,-0.00000050,0.00002426,-0.00006237,0.00000112,-0.0
 0004574,0.00004798,-0.00000080,0.00000003,0.00002403,-0.00000054,-0.00
 002426,-0.00167360,-0.00000494,0.00000001,-0.00058520,-0.00000024,-0.0
 0195487,0.00091444,0.00000382,-0.00173794,0.00199581,0.00001372,0.0000
 0017,0.00091465,0.00000263,0.00173774,-0.00058536,-0.00000115,0.001954
 84,-0.00002401,-0.00000055,0.00002429,-0.00004797,-0.00000080,-0.00000
 001,0.00006236,0.00000111,0.00004573,-0.00002401,-0.00000050,-0.000024
 26,0.00006238,0.00000122,-0.00004572\\\@


 E PUR SI MUOVE    -- GALILEO GALILEI
 Job cpu time:       0 days 14 hours 47 minutes 37.9 seconds.
 Elapsed time:       0 days  0 hours 29 minutes 40.0 seconds.
 File lengths (MBytes):  RWF=   1835 Int=      0 D2E=      0 Chk=     41 Scr=      1
 Normal termination of Gaussian 16 at Fri Jun 16 18:09:09 2023.
